TITLE = "B00209"
VARIABLES = "x", "y", "Vx", "Vy"
ZONE T="Frame 0", I=324, J=131
-25.824876 5.210096 0.000000 0.000000
-25.742827 5.210096 0.000000 0.000000
-25.660778 5.210096 0.000000 0.000000
-25.578729 5.210096 0.000000 0.000000
-25.496680 5.210096 0.000000 0.000000
-25.414632 5.210096 0.000000 0.000000
-25.332583 5.210096 0.000000 0.000000
-25.250534 5.210096 0.000000 0.000000
-25.168485 5.210096 0.000000 0.000000
-25.086436 5.210096 0.000000 0.000000
-25.004388 5.210096 0.000000 0.000000
-24.922339 5.210096 0.000000 0.000000
-24.840290 5.210096 0.000000 0.000000
-24.758241 5.210096 0.000000 0.000000
-24.676192 5.210096 0.000000 0.000000
-24.594144 5.210096 0.000000 0.000000
-24.512095 5.210096 0.000000 0.000000
-24.430046 5.210096 0.000000 0.000000
-24.347997 5.210096 0.000000 0.000000
-24.265948 5.210096 0.000000 0.000000
-24.183900 5.210096 0.000000 0.000000
-24.101851 5.210096 0.000000 0.000000
-24.019802 5.210096 0.000000 0.000000
-23.937753 5.210096 0.000000 0.000000
-23.855704 5.210096 0.000000 0.000000
-23.773656 5.210096 0.000000 0.000000
-23.691607 5.210096 0.000000 0.000000
-23.609558 5.210096 0.000000 0.000000
-23.527509 5.210096 0.000000 0.000000
-23.445460 5.210096 0.000000 0.000000
-23.363412 5.210096 0.000000 0.000000
-23.281363 5.210096 0.000000 0.000000
-23.199314 5.210096 0.000000 0.000000
-23.117265 5.210096 0.000000 0.000000
-23.035216 5.210096 0.000000 0.000000
-22.953168 5.210096 0.000000 0.000000
-22.871119 5.210096 0.000000 0.000000
-22.789070 5.210096 0.000000 0.000000
-22.707021 5.210096 0.000000 0.000000
-22.624972 5.210096 0.000000 0.000000
-22.542923 5.210096 0.000000 0.000000
-22.460875 5.210096 0.000000 0.000000
-22.378826 5.210096 0.000000 0.000000
-22.296777 5.210096 0.000000 0.000000
-22.214728 5.210096 0.000000 0.000000
-22.132679 5.210096 0.000000 0.000000
-22.050631 5.210096 0.000000 0.000000
-21.968582 5.210096 0.000000 0.000000
-21.886533 5.210096 0.000000 0.000000
-21.804484 5.210096 0.000000 0.000000
-21.722435 5.210096 0.000000 0.000000
-21.640387 5.210096 0.000000 0.000000
-21.558338 5.210096 0.000000 0.000000
-21.476289 5.210096 0.000000 0.000000
-21.394240 5.210096 0.000000 0.000000
-21.312191 5.210096 0.000000 0.000000
-21.230143 5.210096 0.000000 0.000000
-21.148094 5.210096 0.000000 0.000000
-21.066045 5.210096 0.000000 0.000000
-20.983996 5.210096 0.000000 0.000000
-20.901947 5.210096 0.000000 0.000000
-20.819899 5.210096 0.000000 0.000000
-20.737850 5.210096 0.000000 0.000000
-20.655801 5.210096 0.000000 0.000000
-20.573752 5.210096 0.000000 0.000000
-20.491703 5.210096 0.000000 0.000000
-20.409655 5.210096 0.000000 0.000000
-20.327606 5.210096 0.000000 0.000000
-20.245557 5.210096 0.000000 0.000000
-20.163508 5.210096 0.000000 0.000000
-20.081459 5.210096 0.000000 0.000000
-19.999411 5.210096 0.000000 0.000000
-19.917362 5.210096 0.000000 0.000000
-19.835313 5.210096 0.000000 0.000000
-19.753264 5.210096 0.000000 0.000000
-19.671215 5.210096 0.000000 0.000000
-19.589167 5.210096 0.000000 0.000000
-19.507118 5.210096 0.000000 0.000000
-19.425069 5.210096 0.000000 0.000000
-19.343020 5.210096 0.000000 0.000000
-19.260971 5.210096 0.000000 0.000000
-19.178923 5.210096 0.000000 0.000000
-19.096874 5.210096 0.000000 0.000000
-19.014825 5.210096 0.000000 0.000000
-18.932776 5.210096 0.000000 0.000000
-18.850727 5.210096 0.000000 0.000000
-18.768679 5.210096 0.000000 0.000000
-18.686630 5.210096 0.000000 0.000000
-18.604581 5.210096 0.000000 0.000000
-18.522532 5.210096 0.000000 0.000000
-18.440483 5.210096 0.000000 0.000000
-18.358435 5.210096 0.000000 0.000000
-18.276386 5.210096 0.000000 0.000000
-18.194337 5.210096 0.000000 0.000000
-18.112288 5.210096 0.000000 0.000000
-18.030239 5.210096 0.000000 0.000000
-17.948190 5.210096 0.000000 0.000000
-17.866142 5.210096 0.000000 0.000000
-17.784093 5.210096 0.000000 0.000000
-17.702044 5.210096 0.000000 0.000000
-17.619995 5.210096 0.000000 0.000000
-17.537946 5.210096 0.000000 0.000000
-17.455898 5.210096 0.000000 0.000000
-17.373849 5.210096 0.000000 0.000000
-17.291800 5.210096 0.000000 0.000000
-17.209751 5.210096 0.000000 0.000000
-17.127702 5.210096 0.000000 0.000000
-17.045654 5.210096 0.000000 0.000000
-16.963605 5.210096 0.000000 0.000000
-16.881556 5.210096 0.000000 0.000000
-16.799507 5.210096 0.000000 0.000000
-16.717458 5.210096 0.000000 0.000000
-16.635410 5.210096 0.000000 0.000000
-16.553361 5.210096 0.000000 0.000000
-16.471312 5.210096 0.000000 0.000000
-16.389263 5.210096 0.000000 0.000000
-16.307214 5.210096 0.000000 0.000000
-16.225166 5.210096 0.000000 0.000000
-16.143117 5.210096 0.000000 0.000000
-16.061068 5.210096 0.000000 0.000000
-15.979019 5.210096 0.000000 0.000000
-15.896970 5.210096 0.000000 0.000000
-15.814922 5.210096 0.000000 0.000000
-15.732873 5.210096 0.000000 0.000000
-15.650824 5.210096 0.000000 0.000000
-15.568775 5.210096 0.000000 0.000000
-15.486726 5.210096 0.000000 0.000000
-15.404678 5.210096 0.000000 0.000000
-15.322629 5.210096 0.000000 0.000000
-15.240580 5.210096 0.000000 0.000000
-15.158531 5.210096 0.000000 0.000000
-15.076482 5.210096 0.000000 0.000000
-14.994434 5.210096 0.000000 0.000000
-14.912385 5.210096 0.000000 0.000000
-14.830336 5.210096 0.000000 0.000000
-14.748287 5.210096 0.000000 0.000000
-14.666238 5.210096 0.000000 0.000000
-14.584190 5.210096 0.000000 0.000000
-14.502141 5.210096 0.000000 0.000000
-14.420092 5.210096 0.000000 0.000000
-14.338043 5.210096 0.000000 0.000000
-14.255994 5.210096 0.000000 0.000000
-14.173946 5.210096 0.000000 0.000000
-14.091897 5.210096 0.000000 0.000000
-14.009848 5.210096 0.000000 0.000000
-13.927799 5.210096 0.000000 0.000000
-13.845750 5.210096 0.000000 0.000000
-13.763702 5.210096 0.000000 0.000000
-13.681653 5.210096 0.000000 0.000000
-13.599604 5.210096 0.000000 0.000000
-13.517555 5.210096 0.000000 0.000000
-13.435506 5.210096 0.000000 0.000000
-13.353457 5.210096 0.000000 0.000000
-13.271409 5.210096 0.000000 0.000000
-13.189360 5.210096 0.000000 0.000000
-13.107311 5.210096 0.000000 0.000000
-13.025262 5.210096 0.000000 0.000000
-12.943213 5.210096 0.000000 0.000000
-12.861165 5.210096 0.000000 0.000000
-12.779116 5.210096 0.000000 0.000000
-12.697067 5.210096 0.000000 0.000000
-12.615018 5.210096 0.000000 0.000000
-12.532969 5.210096 0.000000 0.000000
-12.450921 5.210096 0.000000 0.000000
-12.368872 5.210096 0.000000 0.000000
-12.286823 5.210096 0.000000 0.000000
-12.204774 5.210096 0.000000 0.000000
-12.122725 5.210096 0.000000 0.000000
-12.040677 5.210096 0.000000 0.000000
-11.958628 5.210096 0.000000 0.000000
-11.876579 5.210096 0.000000 0.000000
-11.794530 5.210096 0.000000 0.000000
-11.712481 5.210096 0.000000 0.000000
-11.630433 5.210096 0.000000 0.000000
-11.548384 5.210096 0.000000 0.000000
-11.466335 5.210096 0.000000 0.000000
-11.384286 5.210096 0.000000 0.000000
-11.302237 5.210096 0.000000 0.000000
-11.220189 5.210096 0.000000 0.000000
-11.138140 5.210096 0.000000 0.000000
-11.056091 5.210096 0.000000 0.000000
-10.974042 5.210096 0.000000 0.000000
-10.891993 5.210096 0.000000 0.000000
-10.809945 5.210096 0.000000 0.000000
-10.727896 5.210096 0.000000 0.000000
-10.645847 5.210096 0.000000 0.000000
-10.563798 5.210096 0.000000 0.000000
-10.481749 5.210096 0.000000 0.000000
-10.399701 5.210096 0.000000 0.000000
-10.317652 5.210096 0.000000 0.000000
-10.235603 5.210096 0.000000 0.000000
-10.153554 5.210096 0.000000 0.000000
-10.071505 5.210096 0.000000 0.000000
-9.989457 5.210096 0.000000 0.000000
-9.907408 5.210096 0.000000 0.000000
-9.825359 5.210096 0.000000 0.000000
-9.743310 5.210096 0.000000 0.000000
-9.661261 5.210096 0.000000 0.000000
-9.579213 5.210096 0.000000 0.000000
-9.497164 5.210096 0.000000 0.000000
-9.415115 5.210096 0.000000 0.000000
-9.333066 5.210096 0.000000 0.000000
-9.251017 5.210096 0.000000 0.000000
-9.168969 5.210096 0.000000 0.000000
-9.086920 5.210096 0.000000 0.000000
-9.004871 5.210096 0.000000 0.000000
-8.922822 5.210096 0.000000 0.000000
-8.840773 5.210096 0.000000 0.000000
-8.758724 5.210096 0.000000 0.000000
-8.676676 5.210096 0.000000 0.000000
-8.594627 5.210096 0.000000 0.000000
-8.512578 5.210096 0.000000 0.000000
-8.430529 5.210096 0.000000 0.000000
-8.348480 5.210096 0.000000 0.000000
-8.266432 5.210096 0.000000 0.000000
-8.184383 5.210096 0.000000 0.000000
-8.102334 5.210096 0.000000 0.000000
-8.020285 5.210096 0.000000 0.000000
-7.938236 5.210096 0.000000 0.000000
-7.856188 5.210096 0.000000 0.000000
-7.774139 5.210096 0.000000 0.000000
-7.692090 5.210096 0.000000 0.000000
-7.610041 5.210096 0.000000 0.000000
-7.527992 5.210096 0.000000 0.000000
-7.445944 5.210096 0.000000 0.000000
-7.363895 5.210096 0.000000 0.000000
-7.281846 5.210096 0.000000 0.000000
-7.199797 5.210096 0.000000 0.000000
-7.117748 5.210096 0.000000 0.000000
-7.035700 5.210096 0.000000 0.000000
-6.953651 5.210096 0.000000 0.000000
-6.871602 5.210096 0.000000 0.000000
-6.789553 5.210096 0.000000 0.000000
-6.707504 5.210096 0.000000 0.000000
-6.625456 5.210096 0.000000 0.000000
-6.543407 5.210096 0.000000 0.000000
-6.461358 5.210096 0.000000 0.000000
-6.379309 5.210096 0.000000 0.000000
-6.297260 5.210096 0.000000 0.000000
-6.215212 5.210096 0.000000 0.000000
-6.133163 5.210096 0.000000 0.000000
-6.051114 5.210096 0.000000 0.000000
-5.969065 5.210096 0.000000 0.000000
-5.887016 5.210096 0.000000 0.000000
-5.804968 5.210096 0.000000 0.000000
-5.722919 5.210096 0.000000 0.000000
-5.640870 5.210096 0.000000 0.000000
-5.558821 5.210096 0.000000 0.000000
-5.476772 5.210096 0.000000 0.000000
-5.394724 5.210096 0.000000 0.000000
-5.312675 5.210096 0.000000 0.000000
-5.230626 5.210096 0.000000 0.000000
-5.148577 5.210096 0.000000 0.000000
-5.066528 5.210096 0.000000 0.000000
-4.984480 5.210096 0.000000 0.000000
-4.902431 5.210096 0.000000 0.000000
-4.820382 5.210096 0.000000 0.000000
-4.738333 5.210096 0.000000 0.000000
-4.656284 5.210096 0.000000 0.000000
-4.574236 5.210096 0.000000 0.000000
-4.492187 5.210096 0.000000 0.000000
-4.410138 5.210096 0.000000 0.000000
-4.328089 5.210096 0.000000 0.000000
-4.246040 5.210096 0.000000 0.000000
-4.163991 5.210096 0.000000 0.000000
-4.081943 5.210096 0.000000 0.000000
-3.999894 5.210096 0.000000 0.000000
-3.917845 5.210096 0.000000 0.000000
-3.835796 5.210096 0.000000 0.000000
-3.753747 5.210096 0.000000 0.000000
-3.671699 5.210096 0.000000 0.000000
-3.589650 5.210096 0.000000 0.000000
-3.507601 5.210096 0.000000 0.000000
-3.425552 5.210096 0.000000 0.000000
-3.343503 5.210096 0.000000 0.000000
-3.261455 5.210096 0.000000 0.000000
-3.179406 5.210096 0.000000 0.000000
-3.097357 5.210096 0.000000 0.000000
-3.015308 5.210096 0.000000 0.000000
-2.933259 5.210096 0.000000 0.000000
-2.851211 5.210096 0.000000 0.000000
-2.769162 5.210096 0.000000 0.000000
-2.687113 5.210096 0.000000 0.000000
-2.605064 5.210096 0.000000 0.000000
-2.523015 5.210096 0.000000 0.000000
-2.440967 5.210096 0.000000 0.000000
-2.358918 5.210096 0.000000 0.000000
-2.276869 5.210096 0.000000 0.000000
-2.194820 5.210096 0.000000 0.000000
-2.112771 5.210096 0.000000 0.000000
-2.030723 5.210096 0.000000 0.000000
-1.948674 5.210096 0.000000 0.000000
-1.866625 5.210096 0.000000 0.000000
-1.784576 5.210096 0.000000 0.000000
-1.702527 5.210096 -0.195492 -2.518889
-1.620479 5.210096 -0.178112 -2.492420
-1.538430 5.210096 -0.129657 -2.462025
-1.456381 5.210096 -0.048397 -2.437967
-1.374332 5.210096 0.023385 -2.424245
-1.292283 5.210096 0.024741 -2.423488
-1.210235 5.210096 -0.029926 -2.436451
-1.128186 5.210096 -0.097462 -2.438368
-1.046137 5.210096 -0.148751 -2.397105
-0.964088 5.210096 -0.168797 -2.293297
-0.882039 5.210096 -0.171199 -2.116928
-0.799991 5.210096 -0.192703 -1.923313
-0.717942 5.210096 -0.227703 -1.774252
-0.635893 5.210096 -0.242288 -1.669043
-0.553844 5.210096 -0.233123 -1.591700
-0.471795 5.210096 -0.200142 -1.524884
-0.389747 5.210096 -0.143048 -1.445720
-0.307698 5.210096 -0.067538 -1.337513
-0.225649 5.210096 0.000000 0.000000
-0.143600 5.210096 0.000000 0.000000
-0.061551 5.210096 0.000000 0.000000
0.020497 5.210096 0.000000 0.000000
0.102546 5.210096 0.000000 0.000000
0.184595 5.210096 0.000000 0.000000
0.266644 5.210096 0.000000 0.000000
0.348693 5.210096 0.000000 0.000000
0.430742 5.210096 0.000000 0.000000
0.512790 5.210096 0.000000 0.000000
0.594839 5.210096 0.000000 0.000000
0.676888 5.210096 0.000000 0.000000
-25.824876 5.128047 0.000000 0.000000
-25.742827 5.128047 0.000000 0.000000
-25.660778 5.128047 0.000000 0.000000
-25.578729 5.128047 0.000000 0.000000
-25.496680 5.128047 0.000000 0.000000
-25.414632 5.128047 0.000000 0.000000
-25.332583 5.128047 0.000000 0.000000
-25.250534 5.128047 0.000000 0.000000
-25.168485 5.128047 0.000000 0.000000
-25.086436 5.128047 0.000000 0.000000
-25.004388 5.128047 0.000000 0.000000
-24.922339 5.128047 0.000000 0.000000
-24.840290 5.128047 0.000000 0.000000
-24.758241 5.128047 0.000000 0.000000
-24.676192 5.128047 0.000000 0.000000
-24.594144 5.128047 0.000000 0.000000
-24.512095 5.128047 0.000000 0.000000
-24.430046 5.128047 0.000000 0.000000
-24.347997 5.128047 0.000000 0.000000
-24.265948 5.128047 0.000000 0.000000
-24.183900 5.128047 0.000000 0.000000
-24.101851 5.128047 0.000000 0.000000
-24.019802 5.128047 0.000000 0.000000
-23.937753 5.128047 0.000000 0.000000
-23.855704 5.128047 0.000000 0.000000
-23.773656 5.128047 0.000000 0.000000
-23.691607 5.128047 0.000000 0.000000
-23.609558 5.128047 0.000000 0.000000
-23.527509 5.128047 0.000000 0.000000
-23.445460 5.128047 0.000000 0.000000
-23.363412 5.128047 0.000000 0.000000
-23.281363 5.128047 0.000000 0.000000
-23.199314 5.128047 0.000000 0.000000
-23.117265 5.128047 0.000000 0.000000
-23.035216 5.128047 0.000000 0.000000
-22.953168 5.128047 0.000000 0.000000
-22.871119 5.128047 0.000000 0.000000
-22.789070 5.128047 0.000000 0.000000
-22.707021 5.128047 0.000000 0.000000
-22.624972 5.128047 0.000000 0.000000
-22.542923 5.128047 0.000000 0.000000
-22.460875 5.128047 0.000000 0.000000
-22.378826 5.128047 0.000000 0.000000
-22.296777 5.128047 0.000000 0.000000
-22.214728 5.128047 0.000000 0.000000
-22.132679 5.128047 0.000000 0.000000
-22.050631 5.128047 0.000000 0.000000
-21.968582 5.128047 0.000000 0.000000
-21.886533 5.128047 0.000000 0.000000
-21.804484 5.128047 0.000000 0.000000
-21.722435 5.128047 0.000000 0.000000
-21.640387 5.128047 0.000000 0.000000
-21.558338 5.128047 0.000000 0.000000
-21.476289 5.128047 0.000000 0.000000
-21.394240 5.128047 0.000000 0.000000
-21.312191 5.128047 0.000000 0.000000
-21.230143 5.128047 0.000000 0.000000
-21.148094 5.128047 0.000000 0.000000
-21.066045 5.128047 0.000000 0.000000
-20.983996 5.128047 0.000000 0.000000
-20.901947 5.128047 0.000000 0.000000
-20.819899 5.128047 0.000000 0.000000
-20.737850 5.128047 0.000000 0.000000
-20.655801 5.128047 0.000000 0.000000
-20.573752 5.128047 0.000000 0.000000
-20.491703 5.128047 0.000000 0.000000
-20.409655 5.128047 0.000000 0.000000
-20.327606 5.128047 0.000000 0.000000
-20.245557 5.128047 0.000000 0.000000
-20.163508 5.128047 0.000000 0.000000
-20.081459 5.128047 0.000000 0.000000
-19.999411 5.128047 0.000000 0.000000
-19.917362 5.128047 0.000000 0.000000
-19.835313 5.128047 0.000000 0.000000
-19.753264 5.128047 0.000000 0.000000
-19.671215 5.128047 0.000000 0.000000
-19.589167 5.128047 0.000000 0.000000
-19.507118 5.128047 0.000000 0.000000
-19.425069 5.128047 0.000000 0.000000
-19.343020 5.128047 0.000000 0.000000
-19.260971 5.128047 0.000000 0.000000
-19.178923 5.128047 0.000000 0.000000
-19.096874 5.128047 0.000000 0.000000
-19.014825 5.128047 0.000000 0.000000
-18.932776 5.128047 0.000000 0.000000
-18.850727 5.128047 0.000000 0.000000
-18.768679 5.128047 0.000000 0.000000
-18.686630 5.128047 0.000000 0.000000
-18.604581 5.128047 0.000000 0.000000
-18.522532 5.128047 0.000000 0.000000
-18.440483 5.128047 0.000000 0.000000
-18.358435 5.128047 0.000000 0.000000
-18.276386 5.128047 0.000000 0.000000
-18.194337 5.128047 0.000000 0.000000
-18.112288 5.128047 0.000000 0.000000
-18.030239 5.128047 0.000000 0.000000
-17.948190 5.128047 0.000000 0.000000
-17.866142 5.128047 0.000000 0.000000
-17.784093 5.128047 0.000000 0.000000
-17.702044 5.128047 0.000000 0.000000
-17.619995 5.128047 0.000000 0.000000
-17.537946 5.128047 0.000000 0.000000
-17.455898 5.128047 0.000000 0.000000
-17.373849 5.128047 0.000000 0.000000
-17.291800 5.128047 0.000000 0.000000
-17.209751 5.128047 0.000000 0.000000
-17.127702 5.128047 0.000000 0.000000
-17.045654 5.128047 0.000000 0.000000
-16.963605 5.128047 0.000000 0.000000
-16.881556 5.128047 0.000000 0.000000
-16.799507 5.128047 0.000000 0.000000
-16.717458 5.128047 0.000000 0.000000
-16.635410 5.128047 0.000000 0.000000
-16.553361 5.128047 0.000000 0.000000
-16.471312 5.128047 0.000000 0.000000
-16.389263 5.128047 0.000000 0.000000
-16.307214 5.128047 0.000000 0.000000
-16.225166 5.128047 0.000000 0.000000
-16.143117 5.128047 0.000000 0.000000
-16.061068 5.128047 0.000000 0.000000
-15.979019 5.128047 0.000000 0.000000
-15.896970 5.128047 0.000000 0.000000
-15.814922 5.128047 0.000000 0.000000
-15.732873 5.128047 0.000000 0.000000
-15.650824 5.128047 0.000000 0.000000
-15.568775 5.128047 0.000000 0.000000
-15.486726 5.128047 0.000000 0.000000
-15.404678 5.128047 0.000000 0.000000
-15.322629 5.128047 0.000000 0.000000
-15.240580 5.128047 0.000000 0.000000
-15.158531 5.128047 0.000000 0.000000
-15.076482 5.128047 0.000000 0.000000
-14.994434 5.128047 0.000000 0.000000
-14.912385 5.128047 0.000000 0.000000
-14.830336 5.128047 0.000000 0.000000
-14.748287 5.128047 0.000000 0.000000
-14.666238 5.128047 0.000000 0.000000
-14.584190 5.128047 0.000000 0.000000
-14.502141 5.128047 0.000000 0.000000
-14.420092 5.128047 0.000000 0.000000
-14.338043 5.128047 0.000000 0.000000
-14.255994 5.128047 0.000000 0.000000
-14.173946 5.128047 0.000000 0.000000
-14.091897 5.128047 0.000000 0.000000
-14.009848 5.128047 0.000000 0.000000
-13.927799 5.128047 0.000000 0.000000
-13.845750 5.128047 0.000000 0.000000
-13.763702 5.128047 0.000000 0.000000
-13.681653 5.128047 0.000000 0.000000
-13.599604 5.128047 0.000000 0.000000
-13.517555 5.128047 0.000000 0.000000
-13.435506 5.128047 0.000000 0.000000
-13.353457 5.128047 0.000000 0.000000
-13.271409 5.128047 0.000000 0.000000
-13.189360 5.128047 0.000000 0.000000
-13.107311 5.128047 0.000000 0.000000
-13.025262 5.128047 0.000000 0.000000
-12.943213 5.128047 0.000000 0.000000
-12.861165 5.128047 0.000000 0.000000
-12.779116 5.128047 0.000000 0.000000
-12.697067 5.128047 0.000000 0.000000
-12.615018 5.128047 0.000000 0.000000
-12.532969 5.128047 0.000000 0.000000
-12.450921 5.128047 0.000000 0.000000
-12.368872 5.128047 0.000000 0.000000
-12.286823 5.128047 0.000000 0.000000
-12.204774 5.128047 0.000000 0.000000
-12.122725 5.128047 0.000000 0.000000
-12.040677 5.128047 0.000000 0.000000
-11.958628 5.128047 0.000000 0.000000
-11.876579 5.128047 0.000000 0.000000
-11.794530 5.128047 0.000000 0.000000
-11.712481 5.128047 0.000000 0.000000
-11.630433 5.128047 0.000000 0.000000
-11.548384 5.128047 0.000000 0.000000
-11.466335 5.128047 0.000000 0.000000
-11.384286 5.128047 0.000000 0.000000
-11.302237 5.128047 0.000000 0.000000
-11.220189 5.128047 0.000000 0.000000
-11.138140 5.128047 0.000000 0.000000
-11.056091 5.128047 0.000000 0.000000
-10.974042 5.128047 0.000000 0.000000
-10.891993 5.128047 0.000000 0.000000
-10.809945 5.128047 0.000000 0.000000
-10.727896 5.128047 0.000000 0.000000
-10.645847 5.128047 0.000000 0.000000
-10.563798 5.128047 0.000000 0.000000
-10.481749 5.128047 0.000000 0.000000
-10.399701 5.128047 0.000000 0.000000
-10.317652 5.128047 0.000000 0.000000
-10.235603 5.128047 0.000000 0.000000
-10.153554 5.128047 0.000000 0.000000
-10.071505 5.128047 0.000000 0.000000
-9.989457 5.128047 0.000000 0.000000
-9.907408 5.128047 0.000000 0.000000
-9.825359 5.128047 0.000000 0.000000
-9.743310 5.128047 0.000000 0.000000
-9.661261 5.128047 0.000000 0.000000
-9.579213 5.128047 0.000000 0.000000
-9.497164 5.128047 0.000000 0.000000
-9.415115 5.128047 0.000000 0.000000
-9.333066 5.128047 0.000000 0.000000
-9.251017 5.128047 0.000000 0.000000
-9.168969 5.128047 0.000000 0.000000
-9.086920 5.128047 0.000000 0.000000
-9.004871 5.128047 0.096216 -3.573378
-8.922822 5.128047 0.122859 -3.568835
-8.840773 5.128047 0.163685 -3.556551
-8.758724 5.128047 0.184133 -3.538267
-8.676676 5.128047 0.196849 -3.518225
-8.594627 5.128047 0.208843 -3.500169
-8.512578 5.128047 0.220405 -3.485209
-8.430529 5.128047 0.231451 -3.472894
-8.348480 5.128047 0.241646 -3.461240
-8.266432 5.128047 0.250851 -3.449608
-8.184383 5.128047 0.249386 -3.441685
-8.102334 5.128047 0.239729 -3.445715
-8.020285 5.128047 0.216482 -3.448110
-7.938236 5.128047 0.192951 -3.449019
-7.856188 5.128047 0.184333 -3.449666
-7.774139 5.128047 0.196070 -3.452459
-7.692090 5.128047 0.201915 -3.452320
-7.610041 5.128047 0.174966 -3.433182
-7.527992 5.128047 0.133715 -3.393311
-7.445944 5.128047 0.092677 -3.348430
-7.363895 5.128047 0.064186 -3.312675
-7.281846 5.128047 0.056613 -3.291874
-7.199797 5.128047 0.073532 -3.286278
-7.117748 5.128047 0.106032 -3.291029
-7.035700 5.128047 0.126243 -3.292072
-6.953651 5.128047 0.124698 -3.278479
-6.871602 5.128047 0.110450 -3.249465
-6.789553 5.128047 0.097048 -3.208220
-6.707504 5.128047 0.102484 -3.169253
-6.625456 5.128047 0.123937 -3.145551
-6.543407 5.128047 0.150535 -3.137341
-6.461358 5.128047 0.172353 -3.136210
-6.379309 5.128047 0.182827 -3.110978
-6.297260 5.128047 0.183938 -3.041368
-6.215212 5.128047 0.182970 -2.939497
-6.133163 5.128047 0.184766 -2.825955
-6.051114 5.128047 0.192217 -2.729940
-5.969065 5.128047 0.206635 -2.674515
-5.887016 5.128047 0.222628 -2.652952
-5.804968 5.128047 0.213453 -2.610101
-5.722919 5.128047 0.170300 -2.532948
-5.640870 5.128047 0.119766 -2.450399
-5.558821 5.128047 0.074340 -2.379585
-5.476772 5.128047 0.034656 -2.322742
-5.394724 5.128047 0.002611 -2.279613
-5.312675 5.128047 -0.012891 -2.246960
-5.230626 5.128047 -0.014784 -2.228779
-5.148577 5.128047 -0.020053 -2.215819
-5.066528 5.128047 -0.033478 -2.208434
-4.984480 5.128047 -0.051777 -2.210319
-4.902431 5.128047 -0.066016 -2.219232
-4.820382 5.128047 -0.067462 -2.224808
-4.738333 5.128047 -0.059055 -2.219903
-4.656284 5.128047 -0.064957 -2.194876
-4.574236 5.128047 -0.112719 -2.150844
-4.492187 5.128047 -0.183185 -2.109522
-4.410138 5.128047 -0.241913 -2.083996
-4.328089 5.128047 -0.272375 -2.072124
-4.246040 5.128047 -0.264520 -2.064699
-4.163991 5.128047 -0.252700 -2.053591
-4.081943 5.128047 -0.244292 -2.045706
-3.999894 5.128047 -0.239220 -2.044695
-3.917845 5.128047 -0.235657 -2.053571
-3.835796 5.128047 -0.233012 -2.075104
-3.753747 5.128047 -0.236190 -2.108484
-3.671699 5.128047 -0.259288 -2.136931
-3.589650 5.128047 -0.324660 -2.124696
-3.507601 5.128047 -0.381540 -2.094932
-3.425552 5.128047 -0.369510 -2.111253
-3.343503 5.128047 -0.291741 -2.208726
-3.261455 5.128047 -0.245808 -2.352821
-3.179406 5.128047 -0.254877 -2.454223
-3.097357 5.128047 -0.278032 -2.522821
-3.015308 5.128047 -0.298478 -2.584339
-2.933259 5.128047 -0.314627 -2.652973
-2.851211 5.128047 -0.328414 -2.733217
-2.769162 5.128047 -0.342211 -2.810169
-2.687113 5.128047 -0.354802 -2.845383
-2.605064 5.128047 -0.350531 -2.849122
-2.523015 5.128047 -0.324773 -2.813885
-2.440967 5.128047 -0.288805 -2.778378
-2.358918 5.128047 -0.259065 -2.753695
-2.276869 5.128047 -0.237105 -2.733875
-2.194820 5.128047 -0.223418 -2.710190
-2.112771 5.128047 -0.215672 -2.675600
-2.030723 5.128047 -0.208970 -2.625718
-1.948674 5.128047 -0.198973 -2.573365
-1.866625 5.128047 -0.195850 -2.549487
-1.784576 5.128047 -0.198139 -2.540950
-1.702527 5.128047 -0.197075 -2.525871
-1.620479 5.128047 -0.180651 -2.497131
-1.538430 5.128047 -0.133042 -2.465641
-1.456381 5.128047 -0.047333 -2.446169
-1.374332 5.128047 0.039578 -2.440156
-1.292283 5.128047 0.055081 -2.440879
-1.210235 5.128047 0.003771 -2.447659
-1.128186 5.128047 -0.053601 -2.445097
-1.046137 5.128047 -0.089664 -2.403809
-0.964088 5.128047 -0.106954 -2.298232
-0.882039 5.128047 -0.134230 -2.120424
-0.799991 5.128047 -0.181651 -1.923976
-0.717942 5.128047 -0.220940 -1.773054
-0.635893 5.128047 -0.236871 -1.665610
-0.553844 5.128047 -0.228728 -1.585890
-0.471795 5.128047 -0.197968 -1.514472
-0.389747 5.128047 -0.144697 -1.425300
-0.307698 5.128047 -0.071687 -1.294555
-0.225649 5.128047 0.014561 -1.100389
-0.143600 5.128047 0.000000 0.000000
-0.061551 5.128047 0.000000 0.000000
0.020497 5.128047 0.000000 0.000000
0.102546 5.128047 0.000000 0.000000
0.184595 5.128047 0.000000 0.000000
0.266644 5.128047 0.000000 0.000000
0.348693 5.128047 0.000000 0.000000
0.430742 5.128047 0.000000 0.000000
0.512790 5.128047 0.000000 0.000000
0.594839 5.128047 0.000000 0.000000
0.676888 5.128047 0.000000 0.000000
-25.824876 5.045998 0.000000 0.000000
-25.742827 5.045998 0.000000 0.000000
-25.660778 5.045998 0.000000 0.000000
-25.578729 5.045998 0.000000 0.000000
-25.496680 5.045998 0.000000 0.000000
-25.414632 5.045998 0.000000 0.000000
-25.332583 5.045998 0.000000 0.000000
-25.250534 5.045998 0.000000 0.000000
-25.168485 5.045998 0.000000 0.000000
-25.086436 5.045998 0.000000 0.000000
-25.004388 5.045998 0.000000 0.000000
-24.922339 5.045998 0.000000 0.000000
-24.840290 5.045998 0.000000 0.000000
-24.758241 5.045998 0.000000 0.000000
-24.676192 5.045998 0.000000 0.000000
-24.594144 5.045998 0.000000 0.000000
-24.512095 5.045998 0.000000 0.000000
-24.430046 5.045998 0.000000 0.000000
-24.347997 5.045998 0.000000 0.000000
-24.265948 5.045998 0.000000 0.000000
-24.183900 5.045998 0.000000 0.000000
-24.101851 5.045998 0.000000 0.000000
-24.019802 5.045998 0.000000 0.000000
-23.937753 5.045998 0.000000 0.000000
-23.855704 5.045998 0.000000 0.000000
-23.773656 5.045998 0.000000 0.000000
-23.691607 5.045998 0.000000 0.000000
-23.609558 5.045998 0.000000 0.000000
-23.527509 5.045998 0.000000 0.000000
-23.445460 5.045998 0.000000 0.000000
-23.363412 5.045998 0.000000 0.000000
-23.281363 5.045998 0.000000 0.000000
-23.199314 5.045998 0.000000 0.000000
-23.117265 5.045998 0.000000 0.000000
-23.035216 5.045998 0.000000 0.000000
-22.953168 5.045998 0.000000 0.000000
-22.871119 5.045998 0.000000 0.000000
-22.789070 5.045998 0.000000 0.000000
-22.707021 5.045998 0.000000 0.000000
-22.624972 5.045998 0.000000 0.000000
-22.542923 5.045998 0.000000 0.000000
-22.460875 5.045998 0.000000 0.000000
-22.378826 5.045998 0.000000 0.000000
-22.296777 5.045998 0.000000 0.000000
-22.214728 5.045998 0.000000 0.000000
-22.132679 5.045998 0.000000 0.000000
-22.050631 5.045998 0.000000 0.000000
-21.968582 5.045998 0.000000 0.000000
-21.886533 5.045998 0.000000 0.000000
-21.804484 5.045998 0.000000 0.000000
-21.722435 5.045998 0.000000 0.000000
-21.640387 5.045998 0.000000 0.000000
-21.558338 5.045998 0.000000 0.000000
-21.476289 5.045998 0.000000 0.000000
-21.394240 5.045998 0.000000 0.000000
-21.312191 5.045998 0.000000 0.000000
-21.230143 5.045998 0.000000 0.000000
-21.148094 5.045998 0.000000 0.000000
-21.066045 5.045998 0.000000 0.000000
-20.983996 5.045998 0.000000 0.000000
-20.901947 5.045998 0.000000 0.000000
-20.819899 5.045998 0.000000 0.000000
-20.737850 5.045998 0.000000 0.000000
-20.655801 5.045998 0.000000 0.000000
-20.573752 5.045998 0.000000 0.000000
-20.491703 5.045998 0.000000 0.000000
-20.409655 5.045998 0.000000 0.000000
-20.327606 5.045998 0.000000 0.000000
-20.245557 5.045998 0.000000 0.000000
-20.163508 5.045998 0.000000 0.000000
-20.081459 5.045998 0.000000 0.000000
-19.999411 5.045998 0.000000 0.000000
-19.917362 5.045998 0.000000 0.000000
-19.835313 5.045998 0.000000 0.000000
-19.753264 5.045998 0.000000 0.000000
-19.671215 5.045998 0.000000 0.000000
-19.589167 5.045998 0.000000 0.000000
-19.507118 5.045998 0.000000 0.000000
-19.425069 5.045998 0.000000 0.000000
-19.343020 5.045998 0.000000 0.000000
-19.260971 5.045998 0.000000 0.000000
-19.178923 5.045998 0.000000 0.000000
-19.096874 5.045998 0.000000 0.000000
-19.014825 5.045998 0.000000 0.000000
-18.932776 5.045998 0.000000 0.000000
-18.850727 5.045998 0.000000 0.000000
-18.768679 5.045998 0.000000 0.000000
-18.686630 5.045998 0.000000 0.000000
-18.604581 5.045998 0.000000 0.000000
-18.522532 5.045998 0.000000 0.000000
-18.440483 5.045998 0.000000 0.000000
-18.358435 5.045998 0.000000 0.000000
-18.276386 5.045998 0.000000 0.000000
-18.194337 5.045998 0.000000 0.000000
-18.112288 5.045998 0.000000 0.000000
-18.030239 5.045998 0.000000 0.000000
-17.948190 5.045998 0.000000 0.000000
-17.866142 5.045998 0.000000 0.000000
-17.784093 5.045998 0.000000 0.000000
-17.702044 5.045998 0.000000 0.000000
-17.619995 5.045998 -0.061560 -4.087227
-17.537946 5.045998 -0.065417 -4.081587
-17.455898 5.045998 -0.067205 -4.068997
-17.373849 5.045998 -0.066016 -4.047742
-17.291800 5.045998 -0.061278 -4.025890
-17.209751 5.045998 -0.055740 -4.011941
-17.127702 5.045998 -0.052088 -4.004462
-17.045654 5.045998 -0.051839 -3.999616
-16.963605 5.045998 -0.056739 -3.990540
-16.881556 5.045998 -0.069928 -3.967123
-16.799507 5.045998 -0.090370 -3.942816
-16.717458 5.045998 -0.102631 -3.946351
-16.635410 5.045998 -0.099005 -3.958144
-16.553361 5.045998 -0.085747 -3.958621
-16.471312 5.045998 -0.070087 -3.948899
-16.389263 5.045998 -0.059433 -3.933756
-16.307214 5.045998 -0.059167 -3.918768
-16.225166 5.045998 -0.064820 -3.907470
-16.143117 5.045998 -0.066377 -3.899972
-16.061068 5.045998 -0.071200 -3.897472
-15.979019 5.045998 -0.076987 -3.900411
-15.896970 5.045998 -0.079842 -3.905391
-15.814922 5.045998 -0.081715 -3.909876
-15.732873 5.045998 -0.086681 -3.912646
-15.650824 5.045998 -0.098375 -3.910310
-15.568775 5.045998 -0.117243 -3.889321
-15.486726 5.045998 -0.134521 -3.843058
-15.404678 5.045998 -0.135987 -3.840849
-15.322629 5.045998 -0.076488 -3.940239
-15.240580 5.045998 0.000000 0.000000
-15.158531 5.045998 0.000000 0.000000
-15.076482 5.045998 0.000000 0.000000
-14.994434 5.045998 0.000000 0.000000
-14.912385 5.045998 0.000000 0.000000
-14.830336 5.045998 0.000000 0.000000
-14.748287 5.045998 0.000000 0.000000
-14.666238 5.045998 0.000000 0.000000
-14.584190 5.045998 0.000000 0.000000
-14.502141 5.045998 0.000000 0.000000