TITLE = "B00912"
VARIABLES = "x", "y", "Vx", "Vy"
ZONE T="Frame 0", I=324, J=131
-25.824876 5.210096 0.000000 0.000000
-25.742827 5.210096 0.000000 0.000000
-25.660778 5.210096 0.000000 0.000000
-25.578729 5.210096 0.000000 0.000000
-25.496680 5.210096 0.000000 0.000000
-25.414632 5.210096 0.000000 0.000000
-25.332583 5.210096 0.000000 0.000000
-25.250534 5.210096 0.000000 0.000000
-25.168485 5.210096 0.000000 0.000000
-25.086436 5.210096 0.000000 0.000000
-25.004388 5.210096 0.000000 0.000000
-24.922339 5.210096 0.000000 0.000000
-24.840290 5.210096 0.000000 0.000000
-24.758241 5.210096 0.000000 0.000000
-24.676192 5.210096 0.000000 0.000000
-24.594144 5.210096 0.000000 0.000000
-24.512095 5.210096 0.000000 0.000000
-24.430046 5.210096 0.000000 0.000000
-24.347997 5.210096 0.000000 0.000000
-24.265948 5.210096 0.000000 0.000000
-24.183900 5.210096 0.000000 0.000000
-24.101851 5.210096 0.000000 0.000000
-24.019802 5.210096 0.000000 0.000000
-23.937753 5.210096 0.000000 0.000000
-23.855704 5.210096 0.000000 0.000000
-23.773656 5.210096 0.000000 0.000000
-23.691607 5.210096 0.000000 0.000000
-23.609558 5.210096 0.000000 0.000000
-23.527509 5.210096 0.000000 0.000000
-23.445460 5.210096 0.000000 0.000000
-23.363412 5.210096 0.000000 0.000000
-23.281363 5.210096 0.000000 0.000000
-23.199314 5.210096 0.000000 0.000000
-23.117265 5.210096 0.000000 0.000000
-23.035216 5.210096 0.000000 0.000000
-22.953168 5.210096 0.000000 0.000000
-22.871119 5.210096 0.000000 0.000000
-22.789070 5.210096 0.000000 0.000000
-22.707021 5.210096 0.000000 0.000000
-22.624972 5.210096 0.000000 0.000000
-22.542923 5.210096 0.000000 0.000000
-22.460875 5.210096 0.000000 0.000000
-22.378826 5.210096 0.000000 0.000000
-22.296777 5.210096 0.000000 0.000000
-22.214728 5.210096 0.000000 0.000000
-22.132679 5.210096 0.000000 0.000000
-22.050631 5.210096 0.000000 0.000000
-21.968582 5.210096 0.000000 0.000000
-21.886533 5.210096 0.000000 0.000000
-21.804484 5.210096 0.000000 0.000000
-21.722435 5.210096 0.000000 0.000000
-21.640387 5.210096 0.000000 0.000000
-21.558338 5.210096 0.000000 0.000000
-21.476289 5.210096 0.000000 0.000000
-21.394240 5.210096 0.000000 0.000000
-21.312191 5.210096 0.000000 0.000000
-21.230143 5.210096 0.000000 0.000000
-21.148094 5.210096 0.000000 0.000000
-21.066045 5.210096 0.000000 0.000000
-20.983996 5.210096 0.000000 0.000000
-20.901947 5.210096 0.000000 0.000000
-20.819899 5.210096 0.000000 0.000000
-20.737850 5.210096 0.000000 0.000000
-20.655801 5.210096 0.000000 0.000000
-20.573752 5.210096 0.000000 0.000000
-20.491703 5.210096 0.000000 0.000000
-20.409655 5.210096 0.000000 0.000000
-20.327606 5.210096 0.000000 0.000000
-20.245557 5.210096 0.000000 0.000000
-20.163508 5.210096 0.000000 0.000000
-20.081459 5.210096 0.000000 0.000000
-19.999411 5.210096 0.000000 0.000000
-19.917362 5.210096 0.000000 0.000000
-19.835313 5.210096 0.000000 0.000000
-19.753264 5.210096 0.000000 0.000000
-19.671215 5.210096 0.000000 0.000000
-19.589167 5.210096 0.000000 0.000000
-19.507118 5.210096 0.000000 0.000000
-19.425069 5.210096 0.000000 0.000000
-19.343020 5.210096 0.000000 0.000000
-19.260971 5.210096 0.000000 0.000000
-19.178923 5.210096 0.000000 0.000000
-19.096874 5.210096 0.000000 0.000000
-19.014825 5.210096 0.000000 0.000000
-18.932776 5.210096 0.000000 0.000000
-18.850727 5.210096 0.000000 0.000000
-18.768679 5.210096 0.000000 0.000000
-18.686630 5.210096 0.000000 0.000000
-18.604581 5.210096 0.000000 0.000000
-18.522532 5.210096 0.000000 0.000000
-18.440483 5.210096 0.000000 0.000000
-18.358435 5.210096 0.000000 0.000000
-18.276386 5.210096 0.000000 0.000000
-18.194337 5.210096 0.000000 0.000000
-18.112288 5.210096 0.000000 0.000000
-18.030239 5.210096 0.000000 0.000000
-17.948190 5.210096 0.000000 0.000000
-17.866142 5.210096 0.000000 0.000000
-17.784093 5.210096 0.000000 0.000000
-17.702044 5.210096 0.000000 0.000000
-17.619995 5.210096 0.000000 0.000000
-17.537946 5.210096 0.000000 0.000000
-17.455898 5.210096 0.000000 0.000000
-17.373849 5.210096 0.000000 0.000000
-17.291800 5.210096 0.000000 0.000000
-17.209751 5.210096 0.000000 0.000000
-17.127702 5.210096 0.000000 0.000000
-17.045654 5.210096 0.000000 0.000000
-16.963605 5.210096 0.000000 0.000000
-16.881556 5.210096 0.000000 0.000000
-16.799507 5.210096 0.000000 0.000000
-16.717458 5.210096 0.000000 0.000000
-16.635410 5.210096 0.000000 0.000000
-16.553361 5.210096 0.000000 0.000000
-16.471312 5.210096 0.000000 0.000000
-16.389263 5.210096 0.000000 0.000000
-16.307214 5.210096 0.000000 0.000000
-16.225166 5.210096 0.000000 0.000000
-16.143117 5.210096 0.000000 0.000000
-16.061068 5.210096 0.000000 0.000000
-15.979019 5.210096 0.000000 0.000000
-15.896970 5.210096 0.000000 0.000000
-15.814922 5.210096 0.000000 0.000000
-15.732873 5.210096 0.000000 0.000000
-15.650824 5.210096 0.000000 0.000000
-15.568775 5.210096 0.000000 0.000000
-15.486726 5.210096 0.000000 0.000000
-15.404678 5.210096 0.000000 0.000000
-15.322629 5.210096 0.000000 0.000000
-15.240580 5.210096 0.000000 0.000000
-15.158531 5.210096 0.000000 0.000000
-15.076482 5.210096 0.000000 0.000000
-14.994434 5.210096 0.000000 0.000000
-14.912385 5.210096 0.000000 0.000000
-14.830336 5.210096 0.000000 0.000000
-14.748287 5.210096 0.000000 0.000000
-14.666238 5.210096 0.000000 0.000000
-14.584190 5.210096 0.000000 0.000000
-14.502141 5.210096 0.000000 0.000000
-14.420092 5.210096 0.000000 0.000000
-14.338043 5.210096 0.000000 0.000000
-14.255994 5.210096 0.000000 0.000000
-14.173946 5.210096 0.000000 0.000000
-14.091897 5.210096 0.000000 0.000000
-14.009848 5.210096 0.000000 0.000000
-13.927799 5.210096 0.000000 0.000000
-13.845750 5.210096 0.000000 0.000000
-13.763702 5.210096 0.000000 0.000000
-13.681653 5.210096 0.000000 0.000000
-13.599604 5.210096 0.000000 0.000000
-13.517555 5.210096 0.000000 0.000000
-13.435506 5.210096 0.000000 0.000000
-13.353457 5.210096 0.000000 0.000000
-13.271409 5.210096 0.000000 0.000000
-13.189360 5.210096 0.000000 0.000000
-13.107311 5.210096 0.000000 0.000000
-13.025262 5.210096 0.000000 0.000000
-12.943213 5.210096 0.000000 0.000000
-12.861165 5.210096 0.000000 0.000000
-12.779116 5.210096 0.000000 0.000000
-12.697067 5.210096 0.000000 0.000000
-12.615018 5.210096 0.000000 0.000000
-12.532969 5.210096 0.000000 0.000000
-12.450921 5.210096 0.000000 0.000000
-12.368872 5.210096 0.000000 0.000000
-12.286823 5.210096 0.000000 0.000000
-12.204774 5.210096 0.000000 0.000000
-12.122725 5.210096 0.000000 0.000000
-12.040677 5.210096 0.000000 0.000000
-11.958628 5.210096 0.000000 0.000000
-11.876579 5.210096 0.000000 0.000000
-11.794530 5.210096 0.000000 0.000000
-11.712481 5.210096 0.000000 0.000000
-11.630433 5.210096 0.000000 0.000000
-11.548384 5.210096 0.000000 0.000000
-11.466335 5.210096 0.000000 0.000000
-11.384286 5.210096 0.000000 0.000000
-11.302237 5.210096 0.000000 0.000000
-11.220189 5.210096 0.000000 0.000000
-11.138140 5.210096 0.000000 0.000000
-11.056091 5.210096 0.000000 0.000000
-10.974042 5.210096 0.000000 0.000000
-10.891993 5.210096 0.000000 0.000000
-10.809945 5.210096 0.000000 0.000000
-10.727896 5.210096 0.000000 0.000000
-10.645847 5.210096 0.000000 0.000000
-10.563798 5.210096 0.000000 0.000000
-10.481749 5.210096 0.000000 0.000000
-10.399701 5.210096 0.000000 0.000000
-10.317652 5.210096 0.000000 0.000000
-10.235603 5.210096 0.000000 0.000000
-10.153554 5.210096 0.000000 0.000000
-10.071505 5.210096 0.000000 0.000000
-9.989457 5.210096 0.000000 0.000000
-9.907408 5.210096 0.000000 0.000000
-9.825359 5.210096 0.000000 0.000000
-9.743310 5.210096 0.000000 0.000000
-9.661261 5.210096 0.000000 0.000000
-9.579213 5.210096 0.000000 0.000000
-9.497164 5.210096 0.000000 0.000000
-9.415115 5.210096 0.000000 0.000000
-9.333066 5.210096 0.000000 0.000000
-9.251017 5.210096 0.000000 0.000000
-9.168969 5.210096 0.000000 0.000000
-9.086920 5.210096 0.000000 0.000000
-9.004871 5.210096 0.000000 0.000000
-8.922822 5.210096 0.000000 0.000000
-8.840773 5.210096 0.000000 0.000000
-8.758724 5.210096 0.000000 0.000000
-8.676676 5.210096 0.000000 0.000000
-8.594627 5.210096 0.000000 0.000000
-8.512578 5.210096 0.000000 0.000000
-8.430529 5.210096 0.000000 0.000000
-8.348480 5.210096 0.000000 0.000000
-8.266432 5.210096 0.000000 0.000000
-8.184383 5.210096 0.000000 0.000000
-8.102334 5.210096 0.000000 0.000000
-8.020285 5.210096 0.000000 0.000000
-7.938236 5.210096 0.000000 0.000000
-7.856188 5.210096 0.000000 0.000000
-7.774139 5.210096 0.000000 0.000000
-7.692090 5.210096 0.000000 0.000000
-7.610041 5.210096 0.000000 0.000000
-7.527992 5.210096 0.000000 0.000000
-7.445944 5.210096 0.000000 0.000000
-7.363895 5.210096 0.000000 0.000000
-7.281846 5.210096 0.000000 0.000000
-7.199797 5.210096 0.000000 0.000000
-7.117748 5.210096 0.000000 0.000000
-7.035700 5.210096 0.000000 0.000000
-6.953651 5.210096 0.000000 0.000000
-6.871602 5.210096 0.000000 0.000000
-6.789553 5.210096 0.000000 0.000000
-6.707504 5.210096 0.000000 0.000000
-6.625456 5.210096 0.000000 0.000000
-6.543407 5.210096 0.000000 0.000000
-6.461358 5.210096 0.000000 0.000000
-6.379309 5.210096 0.000000 0.000000
-6.297260 5.210096 0.000000 0.000000
-6.215212 5.210096 0.000000 0.000000
-6.133163 5.210096 0.000000 0.000000
-6.051114 5.210096 0.000000 0.000000
-5.969065 5.210096 0.000000 0.000000
-5.887016 5.210096 0.000000 0.000000
-5.804968 5.210096 0.000000 0.000000
-5.722919 5.210096 0.000000 0.000000
-5.640870 5.210096 0.000000 0.000000
-5.558821 5.210096 0.000000 0.000000
-5.476772 5.210096 0.000000 0.000000
-5.394724 5.210096 0.000000 0.000000
-5.312675 5.210096 0.000000 0.000000
-5.230626 5.210096 0.000000 0.000000
-5.148577 5.210096 0.000000 0.000000
-5.066528 5.210096 0.000000 0.000000
-4.984480 5.210096 0.000000 0.000000
-4.902431 5.210096 0.000000 0.000000
-4.820382 5.210096 0.000000 0.000000
-4.738333 5.210096 0.000000 0.000000
-4.656284 5.210096 0.000000 0.000000
-4.574236 5.210096 0.000000 0.000000
-4.492187 5.210096 0.000000 0.000000
-4.410138 5.210096 0.000000 0.000000
-4.328089 5.210096 0.000000 0.000000
-4.246040 5.210096 0.000000 0.000000
-4.163991 5.210096 0.000000 0.000000
-4.081943 5.210096 0.000000 0.000000
-3.999894 5.210096 0.000000 0.000000
-3.917845 5.210096 0.000000 0.000000
-3.835796 5.210096 0.000000 0.000000
-3.753747 5.210096 0.000000 0.000000
-3.671699 5.210096 0.000000 0.000000
-3.589650 5.210096 0.000000 0.000000
-3.507601 5.210096 0.000000 0.000000
-3.425552 5.210096 0.000000 0.000000
-3.343503 5.210096 0.000000 0.000000
-3.261455 5.210096 0.000000 0.000000
-3.179406 5.210096 0.000000 0.000000
-3.097357 5.210096 0.000000 0.000000
-3.015308 5.210096 0.000000 0.000000
-2.933259 5.210096 0.000000 0.000000
-2.851211 5.210096 0.000000 0.000000
-2.769162 5.210096 0.000000 0.000000
-2.687113 5.210096 0.000000 0.000000
-2.605064 5.210096 0.000000 0.000000
-2.523015 5.210096 0.000000 0.000000
-2.440967 5.210096 0.000000 0.000000
-2.358918 5.210096 0.000000 0.000000
-2.276869 5.210096 0.000000 0.000000
-2.194820 5.210096 0.186544 -2.306970
-2.112771 5.210096 0.176236 -2.193440
-2.030723 5.210096 0.139039 -2.031405
-1.948674 5.210096 0.090810 -1.851171
-1.866625 5.210096 0.048094 -1.686170
-1.784576 5.210096 0.019029 -1.551849
-1.702527 5.210096 0.003853 -1.443640
-1.620479 5.210096 -0.004035 -1.347989
-1.538430 5.210096 -0.010269 -1.251049
-1.456381 5.210096 -0.022006 -1.150349
-1.374332 5.210096 -0.018607 -1.068882
-1.292283 5.210096 -0.006231 -1.012684
-1.210235 5.210096 0.009006 -0.989827
-1.128186 5.210096 0.012686 -1.013506
-1.046137 5.210096 -0.003630 -1.055090
-0.964088 5.210096 -0.039284 -1.056708
-0.882039 5.210096 -0.075870 -1.007285
-0.799991 5.210096 -0.085186 -0.924083
-0.717942 5.210096 -0.060943 -0.824821
-0.635893 5.210096 -0.023705 -0.718949
-0.553844 5.210096 -0.022793 -0.614004
-0.471795 5.210096 -0.042973 -0.516541
-0.389747 5.210096 -0.051123 -0.430384
-0.307698 5.210096 -0.031822 -0.353894
-0.225649 5.210096 0.000000 0.000000
-0.143600 5.210096 0.000000 0.000000
-0.061551 5.210096 0.000000 0.000000
0.020497 5.210096 0.000000 0.000000
0.102546 5.210096 0.000000 0.000000
0.184595 5.210096 0.000000 0.000000
0.266644 5.210096 0.000000 0.000000
0.348693 5.210096 0.000000 0.000000
0.430742 5.210096 0.000000 0.000000
0.512790 5.210096 0.000000 0.000000
0.594839 5.210096 0.000000 0.000000
0.676888 5.210096 0.000000 0.000000
-25.824876 5.128047 0.000000 0.000000
-25.742827 5.128047 0.000000 0.000000
-25.660778 5.128047 0.000000 0.000000
-25.578729 5.128047 0.000000 0.000000
-25.496680 5.128047 0.000000 0.000000
-25.414632 5.128047 0.000000 0.000000
-25.332583 5.128047 0.000000 0.000000
-25.250534 5.128047 0.000000 0.000000
-25.168485 5.128047 0.000000 0.000000
-25.086436 5.128047 0.000000 0.000000
-25.004388 5.128047 0.000000 0.000000
-24.922339 5.128047 0.000000 0.000000
-24.840290 5.128047 0.000000 0.000000
-24.758241 5.128047 0.000000 0.000000
-24.676192 5.128047 0.000000 0.000000
-24.594144 5.128047 0.000000 0.000000
-24.512095 5.128047 0.000000 0.000000
-24.430046 5.128047 0.000000 0.000000
-24.347997 5.128047 0.000000 0.000000
-24.265948 5.128047 0.000000 0.000000
-24.183900 5.128047 0.000000 0.000000
-24.101851 5.128047 0.000000 0.000000
-24.019802 5.128047 0.000000 0.000000
-23.937753 5.128047 0.000000 0.000000
-23.855704 5.128047 0.000000 0.000000
-23.773656 5.128047 0.000000 0.000000
-23.691607 5.128047 0.000000 0.000000
-23.609558 5.128047 0.000000 0.000000
-23.527509 5.128047 0.000000 0.000000
-23.445460 5.128047 0.000000 0.000000
-23.363412 5.128047 0.000000 0.000000
-23.281363 5.128047 0.000000 0.000000
-23.199314 5.128047 0.000000 0.000000
-23.117265 5.128047 0.000000 0.000000
-23.035216 5.128047 0.000000 0.000000
-22.953168 5.128047 0.000000 0.000000
-22.871119 5.128047 0.000000 0.000000
-22.789070 5.128047 0.000000 0.000000
-22.707021 5.128047 0.000000 0.000000
-22.624972 5.128047 0.000000 0.000000
-22.542923 5.128047 0.000000 0.000000
-22.460875 5.128047 0.000000 0.000000
-22.378826 5.128047 0.000000 0.000000
-22.296777 5.128047 0.000000 0.000000
-22.214728 5.128047 0.000000 0.000000
-22.132679 5.128047 0.000000 0.000000
-22.050631 5.128047 0.000000 0.000000
-21.968582 5.128047 0.000000 0.000000
-21.886533 5.128047 0.000000 0.000000
-21.804484 5.128047 0.000000 0.000000
-21.722435 5.128047 0.000000 0.000000
-21.640387 5.128047 0.000000 0.000000
-21.558338 5.128047 0.000000 0.000000
-21.476289 5.128047 0.000000 0.000000
-21.394240 5.128047 0.000000 0.000000
-21.312191 5.128047 0.000000 0.000000
-21.230143 5.128047 0.000000 0.000000
-21.148094 5.128047 0.000000 0.000000
-21.066045 5.128047 0.000000 0.000000
-20.983996 5.128047 0.000000 0.000000
-20.901947 5.128047 0.000000 0.000000
-20.819899 5.128047 0.000000 0.000000
-20.737850 5.128047 0.000000 0.000000
-20.655801 5.128047 0.000000 0.000000
-20.573752 5.128047 0.000000 0.000000
-20.491703 5.128047 0.000000 0.000000
-20.409655 5.128047 0.000000 0.000000
-20.327606 5.128047 0.000000 0.000000
-20.245557 5.128047 0.000000 0.000000
-20.163508 5.128047 0.000000 0.000000
-20.081459 5.128047 0.000000 0.000000
-19.999411 5.128047 0.000000 0.000000
-19.917362 5.128047 0.000000 0.000000
-19.835313 5.128047 0.000000 0.000000
-19.753264 5.128047 0.000000 0.000000
-19.671215 5.128047 0.000000 0.000000
-19.589167 5.128047 0.000000 0.000000
-19.507118 5.128047 0.000000 0.000000
-19.425069 5.128047 0.000000 0.000000
-19.343020 5.128047 0.000000 0.000000
-19.260971 5.128047 0.000000 0.000000
-19.178923 5.128047 0.000000 0.000000
-19.096874 5.128047 0.000000 0.000000
-19.014825 5.128047 0.000000 0.000000
-18.932776 5.128047 0.000000 0.000000
-18.850727 5.128047 0.000000 0.000000
-18.768679 5.128047 0.000000 0.000000
-18.686630 5.128047 0.000000 0.000000
-18.604581 5.128047 0.000000 0.000000
-18.522532 5.128047 0.000000 0.000000
-18.440483 5.128047 0.000000 0.000000
-18.358435 5.128047 0.000000 0.000000
-18.276386 5.128047 0.000000 0.000000
-18.194337 5.128047 0.000000 0.000000
-18.112288 5.128047 0.000000 0.000000
-18.030239 5.128047 0.000000 0.000000
-17.948190 5.128047 0.000000 0.000000
-17.866142 5.128047 0.000000 0.000000
-17.784093 5.128047 0.000000 0.000000
-17.702044 5.128047 0.000000 0.000000
-17.619995 5.128047 0.000000 0.000000
-17.537946 5.128047 0.000000 0.000000
-17.455898 5.128047 0.000000 0.000000
-17.373849 5.128047 0.000000 0.000000
-17.291800 5.128047 0.000000 0.000000
-17.209751 5.128047 0.000000 0.000000
-17.127702 5.128047 0.000000 0.000000
-17.045654 5.128047 0.000000 0.000000
-16.963605 5.128047 0.000000 0.000000
-16.881556 5.128047 0.000000 0.000000
-16.799507 5.128047 0.000000 0.000000
-16.717458 5.128047 0.000000 0.000000
-16.635410 5.128047 0.000000 0.000000
-16.553361 5.128047 0.000000 0.000000
-16.471312 5.128047 0.000000 0.000000
-16.389263 5.128047 0.000000 0.000000
-16.307214 5.128047 0.000000 0.000000
-16.225166 5.128047 0.000000 0.000000
-16.143117 5.128047 0.000000 0.000000
-16.061068 5.128047 0.000000 0.000000
-15.979019 5.128047 0.000000 0.000000
-15.896970 5.128047 0.000000 0.000000
-15.814922 5.128047 0.000000 0.000000
-15.732873 5.128047 0.000000 0.000000
-15.650824 5.128047 0.000000 0.000000
-15.568775 5.128047 0.000000 0.000000
-15.486726 5.128047 0.000000 0.000000
-15.404678 5.128047 0.000000 0.000000
-15.322629 5.128047 0.000000 0.000000
-15.240580 5.128047 0.000000 0.000000
-15.158531 5.128047 0.000000 0.000000
-15.076482 5.128047 0.000000 0.000000
-14.994434 5.128047 0.000000 0.000000
-14.912385 5.128047 0.000000 0.000000
-14.830336 5.128047 0.000000 0.000000
-14.748287 5.128047 0.000000 0.000000
-14.666238 5.128047 0.000000 0.000000
-14.584190 5.128047 0.000000 0.000000
-14.502141 5.128047 0.000000 0.000000
-14.420092 5.128047 0.000000 0.000000
-14.338043 5.128047 0.000000 0.000000
-14.255994 5.128047 0.000000 0.000000
-14.173946 5.128047 0.000000 0.000000
-14.091897 5.128047 0.000000 0.000000
-14.009848 5.128047 0.000000 0.000000
-13.927799 5.128047 0.000000 0.000000
-13.845750 5.128047 0.000000 0.000000
-13.763702 5.128047 0.000000 0.000000
-13.681653 5.128047 0.000000 0.000000
-13.599604 5.128047 0.000000 0.000000
-13.517555 5.128047 0.000000 0.000000
-13.435506 5.128047 0.000000 0.000000
-13.353457 5.128047 0.000000 0.000000
-13.271409 5.128047 0.000000 0.000000
-13.189360 5.128047 0.000000 0.000000
-13.107311 5.128047 0.000000 0.000000
-13.025262 5.128047 0.000000 0.000000
-12.943213 5.128047 0.000000 0.000000
-12.861165 5.128047 0.000000 0.000000
-12.779116 5.128047 0.000000 0.000000
-12.697067 5.128047 0.000000 0.000000
-12.615018 5.128047 0.000000 0.000000
-12.532969 5.128047 0.000000 0.000000
-12.450921 5.128047 0.000000 0.000000
-12.368872 5.128047 0.000000 0.000000
-12.286823 5.128047 0.000000 0.000000
-12.204774 5.128047 0.000000 0.000000
-12.122725 5.128047 0.000000 0.000000
-12.040677 5.128047 0.000000 0.000000
-11.958628 5.128047 0.000000 0.000000
-11.876579 5.128047 0.000000 0.000000
-11.794530 5.128047 0.000000 0.000000
-11.712481 5.128047 0.000000 0.000000
-11.630433 5.128047 0.000000 0.000000
-11.548384 5.128047 0.000000 0.000000
-11.466335 5.128047 0.000000 0.000000
-11.384286 5.128047 0.000000 0.000000
-11.302237 5.128047 0.000000 0.000000
-11.220189 5.128047 0.000000 0.000000
-11.138140 5.128047 0.000000 0.000000
-11.056091 5.128047 0.000000 0.000000
-10.974042 5.128047 0.000000 0.000000
-10.891993 5.128047 0.000000 0.000000
-10.809945 5.128047 0.000000 0.000000
-10.727896 5.128047 0.000000 0.000000
-10.645847 5.128047 0.000000 0.000000
-10.563798 5.128047 0.000000 0.000000
-10.481749 5.128047 0.000000 0.000000
-10.399701 5.128047 0.000000 0.000000
-10.317652 5.128047 0.000000 0.000000
-10.235603 5.128047 0.000000 0.000000
-10.153554 5.128047 0.000000 0.000000
-10.071505 5.128047 0.000000 0.000000
-9.989457 5.128047 0.000000 0.000000
-9.907408 5.128047 -0.188655 -3.178699
-9.825359 5.128047 -0.173761 -3.178053
-9.743310 5.128047 -0.160692 -3.176195
-9.661261 5.128047 -0.147756 -3.175205
-9.579213 5.128047 -0.135712 -3.174745
-9.497164 5.128047 -0.125173 -3.174592
-9.415115 5.128047 -0.115574 -3.173842
-9.333066 5.128047 -0.106924 -3.170227
-9.251017 5.128047 -0.100062 -3.161320
-9.168969 5.128047 -0.100342 -3.142653
-9.086920 5.128047 -0.089356 -3.143227
-9.004871 5.128047 -0.071250 -3.153810
-8.922822 5.128047 -0.050879 -3.167510
-8.840773 5.128047 -0.031759 -3.184482
-8.758724 5.128047 -0.004793 -3.207488
-8.676676 5.128047 0.010142 -3.224728
-8.594627 5.128047 0.018556 -3.230292
-8.512578 5.128047 0.018561 -3.228987
-8.430529 5.128047 0.011999 -3.226208
-8.348480 5.128047 0.001032 -3.223771
-8.266432 5.128047 -0.010795 -3.220255
-8.184383 5.128047 -0.016392 -3.211653
-8.102334 5.128047 -0.010854 -3.199565
-8.020285 5.128047 0.000742 -3.195688
-7.938236 5.128047 0.005542 -3.203725
-7.856188 5.128047 0.014378 -3.215238
-7.774139 5.128047 0.036707 -3.219986
-7.692090 5.128047 0.059774 -3.218972
-7.610041 5.128047 0.073254 -3.219161
-7.527992 5.128047 0.081100 -3.218710
-7.445944 5.128047 0.089416 -3.212036
-7.363895 5.128047 0.100787 -3.199054
-7.281846 5.128047 0.107412 -3.193213
-7.199797 5.128047 0.100890 -3.209252
-7.117748 5.128047 0.082205 -3.235123
-7.035700 5.128047 0.061653 -3.258238
-6.953651 5.128047 0.054800 -3.270488
-6.871602 5.128047 0.067598 -3.268127
-6.789553 5.128047 0.084329 -3.260554
-6.707504 5.128047 0.090805 -3.257215
-6.625456 5.128047 0.081750 -3.262886
-6.543407 5.128047 0.068366 -3.272349
-6.461358 5.128047 0.056621 -3.276646
-6.379309 5.128047 0.046602 -3.274994
-6.297260 5.128047 0.041538 -3.270109
-6.215212 5.128047 0.047262 -3.264460
-6.133163 5.128047 0.067125 -3.257572
-6.051114 5.128047 0.076935 -3.252343
-5.969065 5.128047 0.062010 -3.251202
-5.887016 5.128047 0.030816 -3.252202
-5.804968 5.128047 0.002463 -3.253338
-5.722919 5.128047 -0.006629 -3.249342
-5.640870 5.128047 -0.002806 -3.235416
-5.558821 5.128047 -0.005672 -3.220964
-5.476772 5.128047 -0.011474 -3.211984
-5.394724 5.128047 -0.017078 -3.208600
-5.312675 5.128047 -0.020917 -3.208693
-5.230626 5.128047 -0.019163 -3.207426
-5.148577 5.128047 -0.009826 -3.202003
-5.066528 5.128047 0.001548 -3.194661
-4.984480 5.128047 0.008170 -3.186884
-4.902431 5.128047 0.003668 -3.178925
-4.820382 5.128047 -0.016650 -3.171786
-4.738333 5.128047 -0.042605 -3.171375
-4.656284 5.128047 -0.057219 -3.174025
-4.574236 5.128047 -0.060086 -3.175740
-4.492187 5.128047 -0.053685 -3.174055
-4.410138 5.128047 -0.046537 -3.171085
-4.328089 5.128047 -0.043822 -3.169197
-4.246040 5.128047 -0.047491 -3.169579
-4.163991 5.128047 -0.059512 -3.172970
-4.081943 5.128047 -0.076679 -3.178826
-3.999894 5.128047 -0.084736 -3.182142
-3.917845 5.128047 -0.074707 -3.180543
-3.835796 5.128047 -0.055345 -3.176589
-3.753747 5.128047 -0.034064 -3.171076
-3.671699 5.128047 -0.021664 -3.166442
-3.589650 5.128047 -0.020201 -3.170192
-3.507601 5.128047 -0.020851 -3.181018
-3.425552 5.128047 -0.023636 -3.183773
-3.343503 5.128047 -0.026072 -3.173439
-3.261455 5.128047 -0.024695 -3.150495
-3.179406 5.128047 -0.016975 -3.116889
-3.097357 5.128047 -0.002733 -3.077640
-3.015308 5.128047 0.016275 -3.034839
-2.933259 5.128047 0.035778 -2.987803
-2.851211 5.128047 0.048882 -2.932436
-2.769162 5.128047 0.050835 -2.866675
-2.687113 5.128047 0.053166 -2.796071
-2.605064 5.128047 0.059658 -2.717399
-2.523015 5.128047 0.070175 -2.630761
-2.440967 5.128047 0.086530 -2.541407
-2.358918 5.128047 0.112741 -2.451669
-2.276869 5.128047 0.148267 -2.367583
-2.194820 5.128047 0.188041 -2.282478
-2.112771 5.128047 0.184388 -2.170429
-2.030723 5.128047 0.142807 -2.012841
-1.948674 5.128047 0.086033 -1.837297
-1.866625 5.128047 0.037585 -1.676536
-1.784576 5.128047 0.006859 -1.545152
-1.702527 5.128047 -0.007072 -1.439080
-1.620479 5.128047 -0.012099 -1.345366
-1.538430 5.128047 -0.016892 -1.249476
-1.456381 5.128047 -0.033136 -1.139051
-1.374332 5.128047 -0.038860 -1.067428
-1.292283 5.128047 -0.017416 -1.022727
-1.210235 5.128047 0.006131 -1.003475
-1.128186 5.128047 0.013021 -1.020540
-1.046137 5.128047 -0.000291 -1.047806
-0.964088 5.128047 -0.032385 -1.034823
-0.882039 5.128047 -0.066397 -0.977058
-0.799991 5.128047 -0.076952 -0.892636
-0.717942 5.128047 -0.058418 -0.798415
-0.635893 5.128047 -0.025053 -0.704837
-0.553844 5.128047 -0.017451 -0.609479
-0.471795 5.128047 -0.036931 -0.513883
-0.389747 5.128047 -0.042112 -0.424076
-0.307698 5.128047 -0.014692 -0.337706
-0.225649 5.128047 0.035638 -0.250945
-0.143600 5.128047 0.000000 0.000000
-0.061551 5.128047 0.000000 0.000000
0.020497 5.128047 0.000000 0.000000
0.102546 5.128047 0.000000 0.000000
0.184595 5.128047 0.000000 0.000000
0.266644 5.128047 0.000000 0.000000
0.348693 5.128047 0.000000 0.000000
0.430742 5.128047 0.000000 0.000000
0.512790 5.128047 0.000000 0.000000
0.594839 5.128047 0.000000 0.000000
0.676888 5.128047 0.000000 0.000000
-25.824876 5.045998 0.000000 0.000000
-25.742827 5.045998 0.000000 0.000000
-25.660778 5.045998 0.000000 0.000000
-25.578729 5.045998 0.000000 0.000000
-25.496680 5.045998 0.000000 0.000000
-25.414632 5.045998 0.000000 0.000000
-25.332583 5.045998 0.000000 0.000000
-25.250534 5.045998 0.000000 0.000000
-25.168485 5.045998 0.000000 0.000000
-25.086436 5.045998 0.000000 0.000000
-25.004388 5.045998 0.000000 0.000000
-24.922339 5.045998 0.000000 0.000000
-24.840290 5.045998 0.000000 0.000000
-24.758241 5.045998 0.000000 0.000000
-24.676192 5.045998 0.000000 0.000000
-24.594144 5.045998 0.000000 0.000000
-24.512095 5.045998 0.000000 0.000000
-24.430046 5.045998 0.000000 0.000000
-24.347997 5.045998 0.000000 0.000000
-24.265948 5.045998 0.000000 0.000000
-24.183900 5.045998 0.000000 0.000000
-24.101851 5.045998 0.000000 0.000000
-24.019802 5.045998 0.000000 0.000000
-23.937753 5.045998 0.000000 0.000000
-23.855704 5.045998 0.000000 0.000000
-23.773656 5.045998 0.000000 0.000000
-23.691607 5.045998 0.000000 0.000000
-23.609558 5.045998 0.000000 0.000000
-23.527509 5.045998 0.000000 0.000000
-23.445460 5.045998 0.000000 0.000000
-23.363412 5.045998 0.000000 0.000000
-23.281363 5.045998 0.000000 0.000000
-23.199314 5.045998 0.000000 0.000000
-23.117265 5.045998 0.000000 0.000000
-23.035216 5.045998 0.000000 0.000000
-22.953168 5.045998 0.000000 0.000000
-22.871119 5.045998 0.000000 0.000000
-22.789070 5.045998 0.000000 0.000000
-22.707021 5.045998 0.000000 0.000000
-22.624972 5.045998 0.000000 0.000000
-22.542923 5.045998 0.000000 0.000000
-22.460875 5.045998 0.000000 0.000000
-22.378826 5.045998 0.000000 0.000000
-22.296777 5.045998 0.000000 0.000000
-22.214728 5.045998 0.000000 0.000000
-22.132679 5.045998 0.000000 0.000000
-22.050631 5.045998 0.000000 0.000000
-21.968582 5.045998 0.000000 0.000000
-21.886533 5.045998 0.000000 0.000000
-21.804484 5.045998 0.000000 0.000000
-21.722435 5.045998 0.000000 0.000000
-21.640387 5.045998 0.000000 0.000000
-21.558338 5.045998 0.000000 0.000000
-21.476289 5.045998 0.000000 0.000000
-21.394240 5.045998 0.000000 0.000000
-21.312191 5.045998 0.000000 0.000000
-21.230143 5.045998 0.000000 0.000000
-21.148094 5.045998 0.000000 0.000000
-21.066045 5.045998 0.000000 0.000000
-20.983996 5.045998 0.000000 0.000000
-20.901947 5.045998 0.000000 0.000000
-20.819899 5.045998 0.000000 0.000000
-20.737850 5.045998 0.000000 0.000000
-20.655801 5.045998 0.000000 0.000000
-20.573752 5.045998 0.000000 0.000000
-20.491703 5.045998 0.000000 0.000000
-20.409655 5.045998 0.000000 0.000000
-20.327606 5.045998 0.000000 0.000000
-20.245557 5.045998 0.000000 0.000000
-20.163508 5.045998 0.000000 0.000000
-20.081459 5.045998 0.000000 0.000000
-19.999411 5.045998 0.000000 0.000000
-19.917362 5.045998 0.000000 0.000000
-19.835313 5.045998 0.000000 0.000000
-19.753264 5.045998 0.000000 0.000000
-19.671215 5.045998 0.000000 0.000000
-19.589167 5.045998 0.000000 0.000000
-19.507118 5.045998 0.000000 0.000000
-19.425069 5.045998 0.000000 0.000000
-19.343020 5.045998 0.000000 0.000000
-19.260971 5.045998 0.000000 0.000000
-19.178923 5.045998 0.000000 0.000000
-19.096874 5.045998 0.000000 0.000000
-19.014825 5.045998 0.000000 0.000000
-18.932776 5.045998 0.000000 0.000000
-18.850727 5.045998 0.000000 0.000000
-18.768679 5.045998 0.000000 0.000000
-18.686630 5.045998 0.000000 0.000000
-18.604581 5.045998 0.000000 0.000000
-18.522532 5.045998 0.000000 0.000000
-18.440483 5.045998 0.000000 0.000000
-18.358435 5.045998 0.000000 0.000000
-18.276386 5.045998 0.000000 0.000000
-18.194337 5.045998 0.000000 0.000000
-18.112288 5.045998 0.000000 0.000000
-18.030239 5.045998 0.000000 0.000000
-17.948190 5.045998 0.000000 0.000000
-17.866142 5.045998 0.000000 0.000000
-17.784093 5.045998 0.000000 0.000000
-17.702044 5.045998 0.000000 0.000000
-17.619995 5.045998 0.000000 0.000000
-17.537946 5.045998 0.195251 -4.108550
-17.455898 5.045998 0.189402 -4.104313
-17.373849 5.045998 0.175531 -4.091996
-17.291800 5.045998 0.154819 -4.075459
-17.209751 5.045998 0.133843 -4.056448
-17.127702 5.045998 0.126009 -4.029773
-17.045654 5.045998 0.136164 -3.991640
-16.963605 5.045998 0.159781 -3.946980
-16.881556 5.045998 0.184044 -3.922542
-16.799507 5.045998 0.199150 -3.920659
-16.717458 5.045998 0.207872 -3.918692
-16.635410 5.045998 0.208803 -3.903259
-16.553361 5.045998 0.200132 -3.844683
-16.471312 5.045998 0.199722 -3.736726
-16.389263 5.045998 0.205168 -3.661721
-16.307214 5.045998 0.211842 -3.618804
-16.225166 5.045998 0.217868 -3.599951
-16.143117 5.045998 0.223005 -3.599150
-16.061068 5.045998 0.226802 -3.610426
-15.979019 5.045998 0.225712 -3.622085
-15.896970 5.045998 0.214189 -3.620530
-15.814922 5.045998 0.199939 -3.602714
-15.732873 5.045998 0.190284 -3.586312
-15.650824 5.045998 0.191096 -3.582695
-15.568775 5.045998 0.200227 -3.596388
-15.486726 5.045998 0.214305 -3.624036
-15.404678 5.045998 0.217846 -3.644781
-15.322629 5.045998 0.203928 -3.647149
-15.240580 5.045998 0.181180 -3.638765
-15.158531 5.045998 0.160201 -3.631735
-15.076482 5.045998 0.151125 -3.636110
-14.994434 5.045998 0.144448 -3.646729
-14.912385 5.045998 0.116314 -3.655979
-14.830336 5.045998 0.084486 -3.666851
-14.748287 5.045998 0.058463 -3.678591
-14.666238 5.045998 0.039148 -3.692451
-14.584190 5.045998 0.024061 -3.709775
-14.502141 5.045998 0.010744 -3.730764