TITLE = "B00907"
VARIABLES = "x", "y", "Vx", "Vy"
ZONE T="Frame 0", I=324, J=131
-25.824876 5.210096 0.000000 0.000000
-25.742827 5.210096 0.000000 0.000000
-25.660778 5.210096 0.000000 0.000000
-25.578729 5.210096 0.000000 0.000000
-25.496680 5.210096 0.000000 0.000000
-25.414632 5.210096 0.000000 0.000000
-25.332583 5.210096 0.000000 0.000000
-25.250534 5.210096 0.000000 0.000000
-25.168485 5.210096 0.000000 0.000000
-25.086436 5.210096 0.000000 0.000000
-25.004388 5.210096 0.000000 0.000000
-24.922339 5.210096 0.000000 0.000000
-24.840290 5.210096 0.000000 0.000000
-24.758241 5.210096 0.000000 0.000000
-24.676192 5.210096 0.000000 0.000000
-24.594144 5.210096 0.000000 0.000000
-24.512095 5.210096 0.000000 0.000000
-24.430046 5.210096 0.000000 0.000000
-24.347997 5.210096 0.000000 0.000000
-24.265948 5.210096 0.000000 0.000000
-24.183900 5.210096 0.000000 0.000000
-24.101851 5.210096 0.000000 0.000000
-24.019802 5.210096 0.000000 0.000000
-23.937753 5.210096 0.000000 0.000000
-23.855704 5.210096 0.000000 0.000000
-23.773656 5.210096 0.000000 0.000000
-23.691607 5.210096 0.000000 0.000000
-23.609558 5.210096 0.000000 0.000000
-23.527509 5.210096 0.000000 0.000000
-23.445460 5.210096 0.000000 0.000000
-23.363412 5.210096 0.000000 0.000000
-23.281363 5.210096 0.000000 0.000000
-23.199314 5.210096 0.000000 0.000000
-23.117265 5.210096 0.000000 0.000000
-23.035216 5.210096 0.000000 0.000000
-22.953168 5.210096 0.000000 0.000000
-22.871119 5.210096 0.000000 0.000000
-22.789070 5.210096 0.000000 0.000000
-22.707021 5.210096 0.000000 0.000000
-22.624972 5.210096 0.000000 0.000000
-22.542923 5.210096 0.000000 0.000000
-22.460875 5.210096 0.000000 0.000000
-22.378826 5.210096 0.000000 0.000000
-22.296777 5.210096 0.000000 0.000000
-22.214728 5.210096 0.000000 0.000000
-22.132679 5.210096 0.000000 0.000000
-22.050631 5.210096 0.000000 0.000000
-21.968582 5.210096 0.000000 0.000000
-21.886533 5.210096 0.000000 0.000000
-21.804484 5.210096 0.000000 0.000000
-21.722435 5.210096 0.000000 0.000000
-21.640387 5.210096 0.000000 0.000000
-21.558338 5.210096 0.000000 0.000000
-21.476289 5.210096 0.000000 0.000000
-21.394240 5.210096 0.000000 0.000000
-21.312191 5.210096 0.000000 0.000000
-21.230143 5.210096 0.000000 0.000000
-21.148094 5.210096 0.000000 0.000000
-21.066045 5.210096 0.000000 0.000000
-20.983996 5.210096 0.000000 0.000000
-20.901947 5.210096 0.000000 0.000000
-20.819899 5.210096 0.000000 0.000000
-20.737850 5.210096 0.000000 0.000000
-20.655801 5.210096 0.000000 0.000000
-20.573752 5.210096 0.000000 0.000000
-20.491703 5.210096 0.000000 0.000000
-20.409655 5.210096 0.000000 0.000000
-20.327606 5.210096 0.000000 0.000000
-20.245557 5.210096 0.000000 0.000000
-20.163508 5.210096 0.000000 0.000000
-20.081459 5.210096 0.000000 0.000000
-19.999411 5.210096 0.000000 0.000000
-19.917362 5.210096 0.000000 0.000000
-19.835313 5.210096 0.000000 0.000000
-19.753264 5.210096 0.000000 0.000000
-19.671215 5.210096 0.000000 0.000000
-19.589167 5.210096 0.000000 0.000000
-19.507118 5.210096 0.000000 0.000000
-19.425069 5.210096 0.000000 0.000000
-19.343020 5.210096 0.000000 0.000000
-19.260971 5.210096 0.000000 0.000000
-19.178923 5.210096 0.000000 0.000000
-19.096874 5.210096 0.000000 0.000000
-19.014825 5.210096 0.000000 0.000000
-18.932776 5.210096 0.000000 0.000000
-18.850727 5.210096 0.000000 0.000000
-18.768679 5.210096 0.000000 0.000000
-18.686630 5.210096 0.000000 0.000000
-18.604581 5.210096 0.000000 0.000000
-18.522532 5.210096 0.000000 0.000000
-18.440483 5.210096 0.000000 0.000000
-18.358435 5.210096 0.000000 0.000000
-18.276386 5.210096 0.000000 0.000000
-18.194337 5.210096 0.000000 0.000000
-18.112288 5.210096 0.000000 0.000000
-18.030239 5.210096 0.000000 0.000000
-17.948190 5.210096 0.000000 0.000000
-17.866142 5.210096 0.000000 0.000000
-17.784093 5.210096 0.000000 0.000000
-17.702044 5.210096 0.000000 0.000000
-17.619995 5.210096 0.000000 0.000000
-17.537946 5.210096 0.000000 0.000000
-17.455898 5.210096 0.000000 0.000000
-17.373849 5.210096 0.000000 0.000000
-17.291800 5.210096 0.000000 0.000000
-17.209751 5.210096 0.000000 0.000000
-17.127702 5.210096 0.000000 0.000000
-17.045654 5.210096 0.000000 0.000000
-16.963605 5.210096 0.000000 0.000000
-16.881556 5.210096 0.000000 0.000000
-16.799507 5.210096 0.000000 0.000000
-16.717458 5.210096 0.000000 0.000000
-16.635410 5.210096 0.000000 0.000000
-16.553361 5.210096 0.000000 0.000000
-16.471312 5.210096 0.000000 0.000000
-16.389263 5.210096 0.000000 0.000000
-16.307214 5.210096 0.000000 0.000000
-16.225166 5.210096 0.000000 0.000000
-16.143117 5.210096 0.000000 0.000000
-16.061068 5.210096 0.000000 0.000000
-15.979019 5.210096 0.000000 0.000000
-15.896970 5.210096 0.000000 0.000000
-15.814922 5.210096 0.000000 0.000000
-15.732873 5.210096 0.000000 0.000000
-15.650824 5.210096 0.000000 0.000000
-15.568775 5.210096 0.000000 0.000000
-15.486726 5.210096 0.000000 0.000000
-15.404678 5.210096 0.000000 0.000000
-15.322629 5.210096 0.000000 0.000000
-15.240580 5.210096 0.000000 0.000000
-15.158531 5.210096 0.000000 0.000000
-15.076482 5.210096 0.000000 0.000000
-14.994434 5.210096 0.000000 0.000000
-14.912385 5.210096 0.000000 0.000000
-14.830336 5.210096 0.000000 0.000000
-14.748287 5.210096 0.000000 0.000000
-14.666238 5.210096 0.000000 0.000000
-14.584190 5.210096 0.000000 0.000000
-14.502141 5.210096 0.000000 0.000000
-14.420092 5.210096 0.000000 0.000000
-14.338043 5.210096 0.000000 0.000000
-14.255994 5.210096 0.000000 0.000000
-14.173946 5.210096 0.000000 0.000000
-14.091897 5.210096 0.000000 0.000000
-14.009848 5.210096 0.000000 0.000000
-13.927799 5.210096 0.000000 0.000000
-13.845750 5.210096 0.000000 0.000000
-13.763702 5.210096 0.000000 0.000000
-13.681653 5.210096 0.000000 0.000000
-13.599604 5.210096 0.000000 0.000000
-13.517555 5.210096 0.000000 0.000000
-13.435506 5.210096 0.000000 0.000000
-13.353457 5.210096 0.000000 0.000000
-13.271409 5.210096 0.000000 0.000000
-13.189360 5.210096 0.000000 0.000000
-13.107311 5.210096 0.000000 0.000000
-13.025262 5.210096 0.000000 0.000000
-12.943213 5.210096 0.000000 0.000000
-12.861165 5.210096 0.000000 0.000000
-12.779116 5.210096 0.000000 0.000000
-12.697067 5.210096 0.000000 0.000000
-12.615018 5.210096 0.000000 0.000000
-12.532969 5.210096 0.000000 0.000000
-12.450921 5.210096 0.000000 0.000000
-12.368872 5.210096 0.000000 0.000000
-12.286823 5.210096 0.000000 0.000000
-12.204774 5.210096 0.000000 0.000000
-12.122725 5.210096 0.000000 0.000000
-12.040677 5.210096 0.000000 0.000000
-11.958628 5.210096 0.000000 0.000000
-11.876579 5.210096 0.000000 0.000000
-11.794530 5.210096 0.000000 0.000000
-11.712481 5.210096 0.000000 0.000000
-11.630433 5.210096 0.000000 0.000000
-11.548384 5.210096 0.000000 0.000000
-11.466335 5.210096 0.000000 0.000000
-11.384286 5.210096 0.000000 0.000000
-11.302237 5.210096 0.000000 0.000000
-11.220189 5.210096 0.000000 0.000000
-11.138140 5.210096 0.000000 0.000000
-11.056091 5.210096 0.000000 0.000000
-10.974042 5.210096 0.000000 0.000000
-10.891993 5.210096 0.000000 0.000000
-10.809945 5.210096 0.000000 0.000000
-10.727896 5.210096 0.000000 0.000000
-10.645847 5.210096 0.000000 0.000000
-10.563798 5.210096 0.000000 0.000000
-10.481749 5.210096 0.000000 0.000000
-10.399701 5.210096 0.000000 0.000000
-10.317652 5.210096 0.000000 0.000000
-10.235603 5.210096 0.000000 0.000000
-10.153554 5.210096 0.000000 0.000000
-10.071505 5.210096 0.000000 0.000000
-9.989457 5.210096 0.000000 0.000000
-9.907408 5.210096 0.000000 0.000000
-9.825359 5.210096 0.000000 0.000000
-9.743310 5.210096 0.000000 0.000000
-9.661261 5.210096 0.000000 0.000000
-9.579213 5.210096 0.000000 0.000000
-9.497164 5.210096 0.000000 0.000000
-9.415115 5.210096 0.000000 0.000000
-9.333066 5.210096 0.000000 0.000000
-9.251017 5.210096 0.000000 0.000000
-9.168969 5.210096 0.000000 0.000000
-9.086920 5.210096 0.000000 0.000000
-9.004871 5.210096 0.000000 0.000000
-8.922822 5.210096 0.000000 0.000000
-8.840773 5.210096 0.000000 0.000000
-8.758724 5.210096 0.000000 0.000000
-8.676676 5.210096 0.000000 0.000000
-8.594627 5.210096 0.000000 0.000000
-8.512578 5.210096 0.000000 0.000000
-8.430529 5.210096 0.000000 0.000000
-8.348480 5.210096 0.000000 0.000000
-8.266432 5.210096 0.000000 0.000000
-8.184383 5.210096 0.000000 0.000000
-8.102334 5.210096 0.000000 0.000000
-8.020285 5.210096 0.000000 0.000000
-7.938236 5.210096 0.000000 0.000000
-7.856188 5.210096 0.000000 0.000000
-7.774139 5.210096 0.000000 0.000000
-7.692090 5.210096 0.000000 0.000000
-7.610041 5.210096 0.000000 0.000000
-7.527992 5.210096 0.000000 0.000000
-7.445944 5.210096 0.000000 0.000000
-7.363895 5.210096 0.000000 0.000000
-7.281846 5.210096 0.000000 0.000000
-7.199797 5.210096 0.000000 0.000000
-7.117748 5.210096 0.000000 0.000000
-7.035700 5.210096 0.000000 0.000000
-6.953651 5.210096 0.000000 0.000000
-6.871602 5.210096 0.000000 0.000000
-6.789553 5.210096 0.000000 0.000000
-6.707504 5.210096 0.000000 0.000000
-6.625456 5.210096 0.000000 0.000000
-6.543407 5.210096 0.000000 0.000000
-6.461358 5.210096 0.000000 0.000000
-6.379309 5.210096 0.000000 0.000000
-6.297260 5.210096 0.000000 0.000000
-6.215212 5.210096 0.000000 0.000000
-6.133163 5.210096 0.000000 0.000000
-6.051114 5.210096 0.000000 0.000000
-5.969065 5.210096 0.000000 0.000000
-5.887016 5.210096 0.000000 0.000000
-5.804968 5.210096 0.000000 0.000000
-5.722919 5.210096 0.000000 0.000000
-5.640870 5.210096 0.000000 0.000000
-5.558821 5.210096 0.000000 0.000000
-5.476772 5.210096 0.000000 0.000000
-5.394724 5.210096 0.000000 0.000000
-5.312675 5.210096 0.000000 0.000000
-5.230626 5.210096 0.000000 0.000000
-5.148577 5.210096 0.000000 0.000000
-5.066528 5.210096 0.000000 0.000000
-4.984480 5.210096 0.000000 0.000000
-4.902431 5.210096 0.000000 0.000000
-4.820382 5.210096 0.000000 0.000000
-4.738333 5.210096 0.000000 0.000000
-4.656284 5.210096 0.000000 0.000000
-4.574236 5.210096 0.000000 0.000000
-4.492187 5.210096 0.000000 0.000000
-4.410138 5.210096 0.000000 0.000000
-4.328089 5.210096 0.000000 0.000000
-4.246040 5.210096 0.000000 0.000000
-4.163991 5.210096 0.000000 0.000000
-4.081943 5.210096 0.000000 0.000000
-3.999894 5.210096 0.000000 0.000000
-3.917845 5.210096 0.000000 0.000000
-3.835796 5.210096 0.000000 0.000000
-3.753747 5.210096 0.000000 0.000000
-3.671699 5.210096 0.000000 0.000000
-3.589650 5.210096 0.000000 0.000000
-3.507601 5.210096 0.000000 0.000000
-3.425552 5.210096 0.000000 0.000000
-3.343503 5.210096 0.000000 0.000000
-3.261455 5.210096 0.000000 0.000000
-3.179406 5.210096 0.000000 0.000000
-3.097357 5.210096 0.000000 0.000000
-3.015308 5.210096 0.000000 0.000000
-2.933259 5.210096 0.000000 0.000000
-2.851211 5.210096 0.000000 0.000000
-2.769162 5.210096 0.000000 0.000000
-2.687113 5.210096 0.000000 0.000000
-2.605064 5.210096 -0.147929 -2.014167
-2.523015 5.210096 -0.188744 -1.958418
-2.440967 5.210096 -0.218825 -1.910309
-2.358918 5.210096 -0.237586 -1.870847
-2.276869 5.210096 -0.247520 -1.840241
-2.194820 5.210096 -0.252054 -1.815706
-2.112771 5.210096 -0.257461 -1.784718
-2.030723 5.210096 -0.270990 -1.723979
-1.948674 5.210096 -0.286509 -1.632909
-1.866625 5.210096 -0.276604 -1.577789
-1.784576 5.210096 -0.230642 -1.570767
-1.702527 5.210096 -0.160378 -1.586991
-1.620479 5.210096 -0.099622 -1.602288
-1.538430 5.210096 -0.077628 -1.605116
-1.456381 5.210096 -0.077082 -1.592895
-1.374332 5.210096 -0.064273 -1.555112
-1.292283 5.210096 -0.024117 -1.469881
-1.210235 5.210096 0.042883 -1.350206
-1.128186 5.210096 0.102095 -1.236928
-1.046137 5.210096 0.105002 -1.152123
-0.964088 5.210096 0.028688 -1.091918
-0.882039 5.210096 -0.080581 -1.026752
-0.799991 5.210096 -0.149358 -0.961138
-0.717942 5.210096 -0.154591 -0.901916
-0.635893 5.210096 -0.109274 -0.842820
-0.553844 5.210096 -0.045580 -0.771703
-0.471795 5.210096 -0.007843 -0.677277
-0.389747 5.210096 -0.021389 -0.564682
-0.307698 5.210096 -0.052827 -0.475539
-0.225649 5.210096 0.000000 0.000000
-0.143600 5.210096 0.000000 0.000000
-0.061551 5.210096 0.000000 0.000000
0.020497 5.210096 0.000000 0.000000
0.102546 5.210096 0.000000 0.000000
0.184595 5.210096 0.000000 0.000000
0.266644 5.210096 0.000000 0.000000
0.348693 5.210096 0.000000 0.000000
0.430742 5.210096 0.000000 0.000000
0.512790 5.210096 0.000000 0.000000
0.594839 5.210096 0.000000 0.000000
0.676888 5.210096 0.000000 0.000000
-25.824876 5.128047 0.000000 0.000000
-25.742827 5.128047 0.000000 0.000000
-25.660778 5.128047 0.000000 0.000000
-25.578729 5.128047 0.000000 0.000000
-25.496680 5.128047 0.000000 0.000000
-25.414632 5.128047 0.000000 0.000000
-25.332583 5.128047 0.000000 0.000000
-25.250534 5.128047 0.000000 0.000000
-25.168485 5.128047 0.000000 0.000000
-25.086436 5.128047 0.000000 0.000000
-25.004388 5.128047 0.000000 0.000000
-24.922339 5.128047 0.000000 0.000000
-24.840290 5.128047 0.000000 0.000000
-24.758241 5.128047 0.000000 0.000000
-24.676192 5.128047 0.000000 0.000000
-24.594144 5.128047 0.000000 0.000000
-24.512095 5.128047 0.000000 0.000000
-24.430046 5.128047 0.000000 0.000000
-24.347997 5.128047 0.000000 0.000000
-24.265948 5.128047 0.000000 0.000000
-24.183900 5.128047 0.000000 0.000000
-24.101851 5.128047 0.000000 0.000000
-24.019802 5.128047 0.000000 0.000000
-23.937753 5.128047 0.000000 0.000000
-23.855704 5.128047 0.000000 0.000000
-23.773656 5.128047 0.000000 0.000000
-23.691607 5.128047 0.000000 0.000000
-23.609558 5.128047 0.000000 0.000000
-23.527509 5.128047 0.000000 0.000000
-23.445460 5.128047 0.000000 0.000000
-23.363412 5.128047 0.000000 0.000000
-23.281363 5.128047 0.000000 0.000000
-23.199314 5.128047 0.000000 0.000000
-23.117265 5.128047 0.000000 0.000000
-23.035216 5.128047 0.000000 0.000000
-22.953168 5.128047 0.000000 0.000000
-22.871119 5.128047 0.000000 0.000000
-22.789070 5.128047 0.000000 0.000000
-22.707021 5.128047 0.000000 0.000000
-22.624972 5.128047 0.000000 0.000000
-22.542923 5.128047 0.000000 0.000000
-22.460875 5.128047 0.000000 0.000000
-22.378826 5.128047 0.000000 0.000000
-22.296777 5.128047 0.000000 0.000000
-22.214728 5.128047 0.000000 0.000000
-22.132679 5.128047 0.000000 0.000000
-22.050631 5.128047 0.000000 0.000000
-21.968582 5.128047 0.000000 0.000000
-21.886533 5.128047 0.000000 0.000000
-21.804484 5.128047 0.000000 0.000000
-21.722435 5.128047 0.000000 0.000000
-21.640387 5.128047 0.000000 0.000000
-21.558338 5.128047 0.000000 0.000000
-21.476289 5.128047 0.000000 0.000000
-21.394240 5.128047 0.000000 0.000000
-21.312191 5.128047 0.000000 0.000000
-21.230143 5.128047 0.000000 0.000000
-21.148094 5.128047 0.000000 0.000000
-21.066045 5.128047 0.000000 0.000000
-20.983996 5.128047 0.000000 0.000000
-20.901947 5.128047 0.000000 0.000000
-20.819899 5.128047 0.000000 0.000000
-20.737850 5.128047 0.000000 0.000000
-20.655801 5.128047 0.000000 0.000000
-20.573752 5.128047 0.000000 0.000000
-20.491703 5.128047 0.000000 0.000000
-20.409655 5.128047 0.000000 0.000000
-20.327606 5.128047 0.000000 0.000000
-20.245557 5.128047 0.000000 0.000000
-20.163508 5.128047 0.000000 0.000000
-20.081459 5.128047 0.000000 0.000000
-19.999411 5.128047 0.000000 0.000000
-19.917362 5.128047 0.000000 0.000000
-19.835313 5.128047 0.000000 0.000000
-19.753264 5.128047 0.000000 0.000000
-19.671215 5.128047 0.000000 0.000000
-19.589167 5.128047 0.000000 0.000000
-19.507118 5.128047 0.000000 0.000000
-19.425069 5.128047 0.000000 0.000000
-19.343020 5.128047 0.000000 0.000000
-19.260971 5.128047 0.000000 0.000000
-19.178923 5.128047 0.000000 0.000000
-19.096874 5.128047 0.000000 0.000000
-19.014825 5.128047 0.000000 0.000000
-18.932776 5.128047 0.000000 0.000000
-18.850727 5.128047 0.000000 0.000000
-18.768679 5.128047 0.000000 0.000000
-18.686630 5.128047 0.000000 0.000000
-18.604581 5.128047 0.000000 0.000000
-18.522532 5.128047 0.000000 0.000000
-18.440483 5.128047 0.000000 0.000000
-18.358435 5.128047 0.000000 0.000000
-18.276386 5.128047 0.000000 0.000000
-18.194337 5.128047 0.000000 0.000000
-18.112288 5.128047 0.000000 0.000000
-18.030239 5.128047 0.000000 0.000000
-17.948190 5.128047 0.000000 0.000000
-17.866142 5.128047 0.000000 0.000000
-17.784093 5.128047 0.000000 0.000000
-17.702044 5.128047 0.000000 0.000000
-17.619995 5.128047 0.000000 0.000000
-17.537946 5.128047 0.000000 0.000000
-17.455898 5.128047 0.000000 0.000000
-17.373849 5.128047 0.000000 0.000000
-17.291800 5.128047 0.000000 0.000000
-17.209751 5.128047 0.000000 0.000000
-17.127702 5.128047 0.000000 0.000000
-17.045654 5.128047 0.000000 0.000000
-16.963605 5.128047 0.000000 0.000000
-16.881556 5.128047 0.000000 0.000000
-16.799507 5.128047 0.000000 0.000000
-16.717458 5.128047 0.000000 0.000000
-16.635410 5.128047 0.000000 0.000000
-16.553361 5.128047 0.000000 0.000000
-16.471312 5.128047 0.000000 0.000000
-16.389263 5.128047 0.000000 0.000000
-16.307214 5.128047 0.000000 0.000000
-16.225166 5.128047 0.000000 0.000000
-16.143117 5.128047 0.000000 0.000000
-16.061068 5.128047 0.000000 0.000000
-15.979019 5.128047 0.000000 0.000000
-15.896970 5.128047 0.000000 0.000000
-15.814922 5.128047 0.000000 0.000000
-15.732873 5.128047 0.000000 0.000000
-15.650824 5.128047 0.000000 0.000000
-15.568775 5.128047 0.000000 0.000000
-15.486726 5.128047 0.000000 0.000000
-15.404678 5.128047 0.000000 0.000000
-15.322629 5.128047 0.000000 0.000000
-15.240580 5.128047 0.000000 0.000000
-15.158531 5.128047 0.000000 0.000000
-15.076482 5.128047 0.000000 0.000000
-14.994434 5.128047 0.000000 0.000000
-14.912385 5.128047 0.000000 0.000000
-14.830336 5.128047 0.000000 0.000000
-14.748287 5.128047 0.000000 0.000000
-14.666238 5.128047 0.000000 0.000000
-14.584190 5.128047 0.000000 0.000000
-14.502141 5.128047 0.000000 0.000000
-14.420092 5.128047 0.000000 0.000000
-14.338043 5.128047 0.000000 0.000000
-14.255994 5.128047 0.000000 0.000000
-14.173946 5.128047 0.000000 0.000000
-14.091897 5.128047 0.000000 0.000000
-14.009848 5.128047 0.000000 0.000000
-13.927799 5.128047 0.000000 0.000000
-13.845750 5.128047 0.000000 0.000000
-13.763702 5.128047 0.000000 0.000000
-13.681653 5.128047 0.000000 0.000000
-13.599604 5.128047 0.000000 0.000000
-13.517555 5.128047 0.000000 0.000000
-13.435506 5.128047 0.000000 0.000000
-13.353457 5.128047 0.000000 0.000000
-13.271409 5.128047 0.000000 0.000000
-13.189360 5.128047 0.000000 0.000000
-13.107311 5.128047 0.000000 0.000000
-13.025262 5.128047 0.000000 0.000000
-12.943213 5.128047 0.000000 0.000000
-12.861165 5.128047 0.000000 0.000000
-12.779116 5.128047 0.000000 0.000000
-12.697067 5.128047 0.000000 0.000000
-12.615018 5.128047 0.000000 0.000000
-12.532969 5.128047 0.000000 0.000000
-12.450921 5.128047 0.000000 0.000000
-12.368872 5.128047 0.000000 0.000000
-12.286823 5.128047 0.000000 0.000000
-12.204774 5.128047 0.000000 0.000000
-12.122725 5.128047 0.000000 0.000000
-12.040677 5.128047 0.000000 0.000000
-11.958628 5.128047 0.000000 0.000000
-11.876579 5.128047 0.000000 0.000000
-11.794530 5.128047 0.000000 0.000000
-11.712481 5.128047 0.000000 0.000000
-11.630433 5.128047 0.000000 0.000000
-11.548384 5.128047 0.000000 0.000000
-11.466335 5.128047 0.000000 0.000000
-11.384286 5.128047 0.000000 0.000000
-11.302237 5.128047 0.000000 0.000000
-11.220189 5.128047 0.000000 0.000000
-11.138140 5.128047 0.000000 0.000000
-11.056091 5.128047 0.000000 0.000000
-10.974042 5.128047 0.000000 0.000000
-10.891993 5.128047 0.000000 0.000000
-10.809945 5.128047 0.000000 0.000000
-10.727896 5.128047 0.000000 0.000000
-10.645847 5.128047 0.000000 0.000000
-10.563798 5.128047 0.000000 0.000000
-10.481749 5.128047 0.000000 0.000000
-10.399701 5.128047 0.000000 0.000000
-10.317652 5.128047 0.000000 0.000000
-10.235603 5.128047 0.000000 0.000000
-10.153554 5.128047 0.000000 0.000000
-10.071505 5.128047 0.000000 0.000000
-9.989457 5.128047 0.000000 0.000000
-9.907408 5.128047 0.000000 0.000000
-9.825359 5.128047 0.000000 0.000000
-9.743310 5.128047 0.000000 0.000000
-9.661261 5.128047 0.000000 0.000000
-9.579213 5.128047 0.000000 0.000000
-9.497164 5.128047 0.000000 0.000000
-9.415115 5.128047 0.000000 0.000000
-9.333066 5.128047 0.000000 0.000000
-9.251017 5.128047 0.000000 0.000000
-9.168969 5.128047 0.000000 0.000000
-9.086920 5.128047 0.000000 0.000000
-9.004871 5.128047 0.000000 0.000000
-8.922822 5.128047 0.000000 0.000000
-8.840773 5.128047 0.000000 0.000000
-8.758724 5.128047 0.000000 0.000000
-8.676676 5.128047 0.000000 0.000000
-8.594627 5.128047 0.038307 -3.782906
-8.512578 5.128047 0.051842 -3.773809
-8.430529 5.128047 0.055621 -3.766846
-8.348480 5.128047 0.045720 -3.759367
-8.266432 5.128047 0.035269 -3.747437
-8.184383 5.128047 0.035141 -3.735365
-8.102334 5.128047 0.042380 -3.730361
-8.020285 5.128047 0.051751 -3.733259
-7.938236 5.128047 0.060172 -3.740847
-7.856188 5.128047 0.068852 -3.741661
-7.774139 5.128047 0.083791 -3.728131
-7.692090 5.128047 0.100477 -3.719292
-7.610041 5.128047 0.112769 -3.715358
-7.527992 5.128047 0.118662 -3.711206
-7.445944 5.128047 0.119790 -3.705078
-7.363895 5.128047 0.117404 -3.697117
-7.281846 5.128047 0.112830 -3.688886
-7.199797 5.128047 0.108160 -3.682208
-7.117748 5.128047 0.104648 -3.671772
-7.035700 5.128047 0.091662 -3.640206
-6.953651 5.128047 0.067718 -3.589846
-6.871602 5.128047 0.048367 -3.544558
-6.789553 5.128047 0.045019 -3.523412
-6.707504 5.128047 0.057187 -3.525609
-6.625456 5.128047 0.078160 -3.537629
-6.543407 5.128047 0.096699 -3.540777
-6.461358 5.128047 0.103422 -3.523840
-6.379309 5.128047 0.090827 -3.485241
-6.297260 5.128047 0.065321 -3.435308
-6.215212 5.128047 0.045457 -3.389474
-6.133163 5.128047 0.031916 -3.353118
-6.051114 5.128047 0.020592 -3.323721
-5.969065 5.128047 0.011508 -3.294497
-5.887016 5.128047 0.007300 -3.261371
-5.804968 5.128047 0.011566 -3.231662
-5.722919 5.128047 0.020309 -3.217774
-5.640870 5.128047 0.031455 -3.217165
-5.558821 5.128047 0.042932 -3.219489
-5.476772 5.128047 0.053003 -3.215849
-5.394724 5.128047 0.063104 -3.202501
-5.312675 5.128047 0.072593 -3.180758
-5.230626 5.128047 0.078891 -3.156117
-5.148577 5.128047 0.081604 -3.134838
-5.066528 5.128047 0.081759 -3.123984
-4.984480 5.128047 0.079291 -3.122621
-4.902431 5.128047 0.075676 -3.122168
-4.820382 5.128047 0.072957 -3.118500
-4.738333 5.128047 0.070828 -3.110177
-4.656284 5.128047 0.068871 -3.097150
-4.574236 5.128047 0.065508 -3.082077
-4.492187 5.128047 0.056816 -3.071027
-4.410138 5.128047 0.041042 -3.065678
-4.328089 5.128047 0.024747 -3.060475
-4.246040 5.128047 0.022523 -3.049235
-4.163991 5.128047 0.038033 -3.027904
-4.081943 5.128047 0.057691 -3.005675
-3.999894 5.128047 0.069456 -2.986624
-3.917845 5.128047 0.077017 -2.965806
-3.835796 5.128047 0.082441 -2.940067
-3.753747 5.128047 0.082523 -2.908219
-3.671699 5.128047 0.073153 -2.870860
-3.589650 5.128047 0.054970 -2.829577
-3.507601 5.128047 0.036124 -2.786335
-3.425552 5.128047 0.021678 -2.739311
-3.343503 5.128047 0.014837 -2.684762
-3.261455 5.128047 0.011514 -2.623556
-3.179406 5.128047 0.006047 -2.561868
-3.097357 5.128047 -0.001452 -2.495441
-3.015308 5.128047 -0.009942 -2.418546
-2.933259 5.128047 -0.020364 -2.330867
-2.851211 5.128047 -0.035713 -2.238299
-2.769162 5.128047 -0.060291 -2.150687
-2.687113 5.128047 -0.098822 -2.075285
-2.605064 5.128047 -0.145794 -2.008850
-2.523015 5.128047 -0.185810 -1.954834
-2.440967 5.128047 -0.215538 -1.908521
-2.358918 5.128047 -0.234337 -1.870247
-2.276869 5.128047 -0.244706 -1.840206
-2.194820 5.128047 -0.250013 -1.815544
-2.112771 5.128047 -0.256191 -1.783016
-2.030723 5.128047 -0.268062 -1.720494
-1.948674 5.128047 -0.281040 -1.635572
-1.866625 5.128047 -0.276506 -1.582165
-1.784576 5.128047 -0.248227 -1.566728
-1.702527 5.128047 -0.201743 -1.572138
-1.620479 5.128047 -0.149220 -1.582459
-1.538430 5.128047 -0.110970 -1.585883
-1.456381 5.128047 -0.096523 -1.571796
-1.374332 5.128047 -0.085309 -1.530038
-1.292283 5.128047 -0.057951 -1.448342
-1.210235 5.128047 -0.004709 -1.338064
-1.128186 5.128047 0.048329 -1.233012
-1.046137 5.128047 0.061040 -1.151848
-0.964088 5.128047 0.008850 -1.092499
-0.882039 5.128047 -0.084998 -1.027428
-0.799991 5.128047 -0.148153 -0.959175
-0.717942 5.128047 -0.148322 -0.896686
-0.635893 5.128047 -0.096917 -0.834356
-0.553844 5.128047 -0.026578 -0.759387
-0.471795 5.128047 0.013016 -0.662171
-0.389747 5.128047 -0.002219 -0.554093
-0.307698 5.128047 -0.038743 -0.469702
-0.225649 5.128047 -0.072970 -0.412480
-0.143600 5.128047 0.000000 0.000000
-0.061551 5.128047 0.000000 0.000000
0.020497 5.128047 0.000000 0.000000
0.102546 5.128047 0.000000 0.000000
0.184595 5.128047 0.000000 0.000000
0.266644 5.128047 0.000000 0.000000
0.348693 5.128047 0.000000 0.000000
0.430742 5.128047 0.000000 0.000000
0.512790 5.128047 0.000000 0.000000
0.594839 5.128047 0.000000 0.000000
0.676888 5.128047 0.000000 0.000000
-25.824876 5.045998 0.000000 0.000000
-25.742827 5.045998 0.000000 0.000000
-25.660778 5.045998 0.000000 0.000000
-25.578729 5.045998 0.000000 0.000000
-25.496680 5.045998 0.000000 0.000000
-25.414632 5.045998 0.000000 0.000000
-25.332583 5.045998 0.000000 0.000000
-25.250534 5.045998 0.000000 0.000000
-25.168485 5.045998 0.000000 0.000000
-25.086436 5.045998 0.000000 0.000000
-25.004388 5.045998 0.000000 0.000000
-24.922339 5.045998 0.000000 0.000000
-24.840290 5.045998 0.000000 0.000000
-24.758241 5.045998 0.000000 0.000000
-24.676192 5.045998 0.000000 0.000000
-24.594144 5.045998 0.000000 0.000000
-24.512095 5.045998 0.000000 0.000000
-24.430046 5.045998 0.000000 0.000000
-24.347997 5.045998 0.000000 0.000000
-24.265948 5.045998 0.000000 0.000000
-24.183900 5.045998 0.000000 0.000000
-24.101851 5.045998 0.000000 0.000000
-24.019802 5.045998 0.000000 0.000000
-23.937753 5.045998 0.000000 0.000000
-23.855704 5.045998 0.000000 0.000000
-23.773656 5.045998 0.000000 0.000000
-23.691607 5.045998 0.000000 0.000000
-23.609558 5.045998 0.000000 0.000000
-23.527509 5.045998 0.000000 0.000000
-23.445460 5.045998 0.000000 0.000000
-23.363412 5.045998 0.000000 0.000000
-23.281363 5.045998 0.000000 0.000000
-23.199314 5.045998 0.000000 0.000000
-23.117265 5.045998 0.000000 0.000000
-23.035216 5.045998 0.000000 0.000000
-22.953168 5.045998 0.000000 0.000000
-22.871119 5.045998 0.000000 0.000000
-22.789070 5.045998 0.000000 0.000000
-22.707021 5.045998 0.000000 0.000000
-22.624972 5.045998 0.000000 0.000000
-22.542923 5.045998 0.000000 0.000000
-22.460875 5.045998 0.000000 0.000000
-22.378826 5.045998 0.000000 0.000000
-22.296777 5.045998 0.000000 0.000000
-22.214728 5.045998 0.000000 0.000000
-22.132679 5.045998 0.000000 0.000000
-22.050631 5.045998 0.000000 0.000000
-21.968582 5.045998 0.000000 0.000000
-21.886533 5.045998 0.000000 0.000000
-21.804484 5.045998 0.000000 0.000000
-21.722435 5.045998 0.000000 0.000000
-21.640387 5.045998 0.000000 0.000000
-21.558338 5.045998 0.000000 0.000000
-21.476289 5.045998 0.000000 0.000000
-21.394240 5.045998 0.000000 0.000000
-21.312191 5.045998 0.000000 0.000000
-21.230143 5.045998 0.000000 0.000000
-21.148094 5.045998 0.000000 0.000000
-21.066045 5.045998 0.000000 0.000000
-20.983996 5.045998 0.000000 0.000000
-20.901947 5.045998 0.000000 0.000000
-20.819899 5.045998 0.000000 0.000000
-20.737850 5.045998 0.000000 0.000000
-20.655801 5.045998 0.000000 0.000000
-20.573752 5.045998 0.000000 0.000000
-20.491703 5.045998 0.000000 0.000000
-20.409655 5.045998 0.000000 0.000000
-20.327606 5.045998 0.000000 0.000000
-20.245557 5.045998 0.000000 0.000000
-20.163508 5.045998 0.000000 0.000000
-20.081459 5.045998 0.000000 0.000000
-19.999411 5.045998 0.000000 0.000000
-19.917362 5.045998 0.000000 0.000000
-19.835313 5.045998 0.000000 0.000000
-19.753264 5.045998 0.000000 0.000000
-19.671215 5.045998 0.000000 0.000000
-19.589167 5.045998 0.000000 0.000000
-19.507118 5.045998 0.000000 0.000000
-19.425069 5.045998 0.000000 0.000000
-19.343020 5.045998 0.000000 0.000000
-19.260971 5.045998 0.000000 0.000000
-19.178923 5.045998 0.000000 0.000000
-19.096874 5.045998 0.000000 0.000000
-19.014825 5.045998 0.000000 0.000000
-18.932776 5.045998 0.000000 0.000000
-18.850727 5.045998 0.000000 0.000000
-18.768679 5.045998 0.000000 0.000000
-18.686630 5.045998 0.000000 0.000000
-18.604581 5.045998 0.000000 0.000000
-18.522532 5.045998 0.000000 0.000000
-18.440483 5.045998 0.000000 0.000000
-18.358435 5.045998 0.000000 0.000000
-18.276386 5.045998 0.000000 0.000000
-18.194337 5.045998 0.000000 0.000000
-18.112288 5.045998 0.000000 0.000000
-18.030239 5.045998 0.000000 0.000000
-17.948190 5.045998 0.000000 0.000000
-17.866142 5.045998 0.000000 0.000000
-17.784093 5.045998 0.000000 0.000000
-17.702044 5.045998 0.000000 0.000000
-17.619995 5.045998 0.000000 0.000000
-17.537946 5.045998 0.000000 0.000000
-17.455898 5.045998 0.000000 0.000000
-17.373849 5.045998 0.000000 0.000000
-17.291800 5.045998 0.000000 0.000000
-17.209751 5.045998 0.240120 -4.263388
-17.127702 5.045998 0.251132 -4.245013
-17.045654 5.045998 0.262226 -4.208211
-16.963605 5.045998 0.268437 -4.177159
-16.881556 5.045998 0.268855 -4.159811
-16.799507 5.045998 0.267101 -4.145807
-16.717458 5.045998 0.265915 -4.131408
-16.635410 5.045998 0.264431 -4.118226
-16.553361 5.045998 0.259045 -4.104959
-16.471312 5.045998 0.248920 -4.089732
-16.389263 5.045998 0.239716 -4.074011
-16.307214 5.045998 0.233754 -4.059794
-16.225166 5.045998 0.229460 -4.048166
-16.143117 5.045998 0.223693 -4.038827
-16.061068 5.045998 0.219585 -4.030861
-15.979019 5.045998 0.220485 -4.022406
-15.896970 5.045998 0.222178 -4.009349
-15.814922 5.045998 0.227619 -3.992318
-15.732873 5.045998 0.235540 -3.976898
-15.650824 5.045998 0.240766 -3.966287
-15.568775 5.045998 0.239694 -3.963357
-15.486726 5.045998 0.229722 -3.970021
-15.404678 5.045998 0.217745 -3.979513
-15.322629 5.045998 0.218363 -3.980082
-15.240580 5.045998 0.233427 -3.968545
-15.158531 5.045998 0.248901 -3.947320
-15.076482 5.045998 0.251584 -3.926994
-14.994434 5.045998 0.247670 -3.915982
-14.912385 5.045998 0.245290 -3.912532
-14.830336 5.045998 0.248458 -3.911512
-14.748287 5.045998 0.249685 -3.911660
-14.666238 5.045998 0.243728 -3.914766
-14.584190 5.045998 0.244343 -3.922003
-14.502141 5.045998 0.252544 -3.934530
-14.420092 5.045998 0.268332 -3.951899