TITLE = "B00273"
VARIABLES = "x", "y", "Vx", "Vy"
ZONE T="Frame 0", I=324, J=131
-25.824876 5.210096 0.000000 0.000000
-25.742827 5.210096 0.000000 0.000000
-25.660778 5.210096 0.000000 0.000000
-25.578729 5.210096 0.000000 0.000000
-25.496680 5.210096 0.000000 0.000000
-25.414632 5.210096 0.000000 0.000000
-25.332583 5.210096 0.000000 0.000000
-25.250534 5.210096 0.000000 0.000000
-25.168485 5.210096 0.000000 0.000000
-25.086436 5.210096 0.000000 0.000000
-25.004388 5.210096 0.000000 0.000000
-24.922339 5.210096 0.000000 0.000000
-24.840290 5.210096 0.000000 0.000000
-24.758241 5.210096 0.000000 0.000000
-24.676192 5.210096 0.000000 0.000000
-24.594144 5.210096 0.000000 0.000000
-24.512095 5.210096 0.000000 0.000000
-24.430046 5.210096 0.000000 0.000000
-24.347997 5.210096 0.000000 0.000000
-24.265948 5.210096 0.000000 0.000000
-24.183900 5.210096 0.000000 0.000000
-24.101851 5.210096 0.000000 0.000000
-24.019802 5.210096 0.000000 0.000000
-23.937753 5.210096 0.000000 0.000000
-23.855704 5.210096 0.000000 0.000000
-23.773656 5.210096 0.000000 0.000000
-23.691607 5.210096 0.000000 0.000000
-23.609558 5.210096 0.000000 0.000000
-23.527509 5.210096 0.000000 0.000000
-23.445460 5.210096 0.000000 0.000000
-23.363412 5.210096 0.000000 0.000000
-23.281363 5.210096 0.000000 0.000000
-23.199314 5.210096 0.000000 0.000000
-23.117265 5.210096 0.000000 0.000000
-23.035216 5.210096 0.000000 0.000000
-22.953168 5.210096 0.000000 0.000000
-22.871119 5.210096 0.000000 0.000000
-22.789070 5.210096 0.000000 0.000000
-22.707021 5.210096 0.000000 0.000000
-22.624972 5.210096 0.000000 0.000000
-22.542923 5.210096 0.000000 0.000000
-22.460875 5.210096 0.000000 0.000000
-22.378826 5.210096 0.000000 0.000000
-22.296777 5.210096 0.000000 0.000000
-22.214728 5.210096 0.000000 0.000000
-22.132679 5.210096 0.000000 0.000000
-22.050631 5.210096 0.000000 0.000000
-21.968582 5.210096 0.000000 0.000000
-21.886533 5.210096 0.000000 0.000000
-21.804484 5.210096 0.000000 0.000000
-21.722435 5.210096 0.000000 0.000000
-21.640387 5.210096 0.000000 0.000000
-21.558338 5.210096 0.000000 0.000000
-21.476289 5.210096 0.000000 0.000000
-21.394240 5.210096 0.000000 0.000000
-21.312191 5.210096 0.000000 0.000000
-21.230143 5.210096 0.000000 0.000000
-21.148094 5.210096 0.000000 0.000000
-21.066045 5.210096 0.000000 0.000000
-20.983996 5.210096 0.000000 0.000000
-20.901947 5.210096 0.000000 0.000000
-20.819899 5.210096 0.000000 0.000000
-20.737850 5.210096 0.000000 0.000000
-20.655801 5.210096 0.000000 0.000000
-20.573752 5.210096 0.000000 0.000000
-20.491703 5.210096 0.000000 0.000000
-20.409655 5.210096 0.000000 0.000000
-20.327606 5.210096 0.000000 0.000000
-20.245557 5.210096 0.000000 0.000000
-20.163508 5.210096 0.000000 0.000000
-20.081459 5.210096 0.000000 0.000000
-19.999411 5.210096 0.000000 0.000000
-19.917362 5.210096 0.000000 0.000000
-19.835313 5.210096 0.000000 0.000000
-19.753264 5.210096 0.000000 0.000000
-19.671215 5.210096 0.000000 0.000000
-19.589167 5.210096 0.000000 0.000000
-19.507118 5.210096 0.000000 0.000000
-19.425069 5.210096 0.000000 0.000000
-19.343020 5.210096 0.000000 0.000000
-19.260971 5.210096 0.000000 0.000000
-19.178923 5.210096 0.000000 0.000000
-19.096874 5.210096 0.000000 0.000000
-19.014825 5.210096 0.000000 0.000000
-18.932776 5.210096 0.000000 0.000000
-18.850727 5.210096 0.000000 0.000000
-18.768679 5.210096 0.000000 0.000000
-18.686630 5.210096 0.000000 0.000000
-18.604581 5.210096 0.000000 0.000000
-18.522532 5.210096 0.000000 0.000000
-18.440483 5.210096 0.000000 0.000000
-18.358435 5.210096 0.000000 0.000000
-18.276386 5.210096 0.000000 0.000000
-18.194337 5.210096 0.000000 0.000000
-18.112288 5.210096 0.000000 0.000000
-18.030239 5.210096 0.000000 0.000000
-17.948190 5.210096 0.000000 0.000000
-17.866142 5.210096 0.000000 0.000000
-17.784093 5.210096 0.000000 0.000000
-17.702044 5.210096 0.000000 0.000000
-17.619995 5.210096 0.000000 0.000000
-17.537946 5.210096 0.000000 0.000000
-17.455898 5.210096 0.000000 0.000000
-17.373849 5.210096 0.000000 0.000000
-17.291800 5.210096 0.000000 0.000000
-17.209751 5.210096 0.000000 0.000000
-17.127702 5.210096 0.000000 0.000000
-17.045654 5.210096 0.000000 0.000000
-16.963605 5.210096 0.000000 0.000000
-16.881556 5.210096 0.000000 0.000000
-16.799507 5.210096 0.000000 0.000000
-16.717458 5.210096 0.000000 0.000000
-16.635410 5.210096 0.000000 0.000000
-16.553361 5.210096 0.000000 0.000000
-16.471312 5.210096 0.000000 0.000000
-16.389263 5.210096 0.000000 0.000000
-16.307214 5.210096 0.000000 0.000000
-16.225166 5.210096 0.000000 0.000000
-16.143117 5.210096 0.000000 0.000000
-16.061068 5.210096 0.000000 0.000000
-15.979019 5.210096 0.000000 0.000000
-15.896970 5.210096 0.000000 0.000000
-15.814922 5.210096 0.000000 0.000000
-15.732873 5.210096 0.000000 0.000000
-15.650824 5.210096 0.000000 0.000000
-15.568775 5.210096 0.000000 0.000000
-15.486726 5.210096 0.000000 0.000000
-15.404678 5.210096 0.000000 0.000000
-15.322629 5.210096 0.000000 0.000000
-15.240580 5.210096 0.000000 0.000000
-15.158531 5.210096 0.000000 0.000000
-15.076482 5.210096 0.000000 0.000000
-14.994434 5.210096 0.000000 0.000000
-14.912385 5.210096 0.000000 0.000000
-14.830336 5.210096 0.000000 0.000000
-14.748287 5.210096 0.000000 0.000000
-14.666238 5.210096 0.000000 0.000000
-14.584190 5.210096 0.000000 0.000000
-14.502141 5.210096 0.000000 0.000000
-14.420092 5.210096 0.000000 0.000000
-14.338043 5.210096 0.000000 0.000000
-14.255994 5.210096 0.000000 0.000000
-14.173946 5.210096 0.000000 0.000000
-14.091897 5.210096 0.000000 0.000000
-14.009848 5.210096 0.000000 0.000000
-13.927799 5.210096 0.000000 0.000000
-13.845750 5.210096 0.000000 0.000000
-13.763702 5.210096 0.000000 0.000000
-13.681653 5.210096 0.000000 0.000000
-13.599604 5.210096 0.000000 0.000000
-13.517555 5.210096 0.000000 0.000000
-13.435506 5.210096 0.000000 0.000000
-13.353457 5.210096 0.000000 0.000000
-13.271409 5.210096 0.000000 0.000000
-13.189360 5.210096 0.000000 0.000000
-13.107311 5.210096 0.000000 0.000000
-13.025262 5.210096 0.000000 0.000000
-12.943213 5.210096 0.000000 0.000000
-12.861165 5.210096 0.000000 0.000000
-12.779116 5.210096 0.000000 0.000000
-12.697067 5.210096 0.000000 0.000000
-12.615018 5.210096 0.000000 0.000000
-12.532969 5.210096 0.000000 0.000000
-12.450921 5.210096 0.000000 0.000000
-12.368872 5.210096 0.000000 0.000000
-12.286823 5.210096 0.000000 0.000000
-12.204774 5.210096 0.000000 0.000000
-12.122725 5.210096 0.000000 0.000000
-12.040677 5.210096 0.000000 0.000000
-11.958628 5.210096 0.000000 0.000000
-11.876579 5.210096 0.000000 0.000000
-11.794530 5.210096 0.000000 0.000000
-11.712481 5.210096 0.000000 0.000000
-11.630433 5.210096 0.000000 0.000000
-11.548384 5.210096 0.000000 0.000000
-11.466335 5.210096 0.000000 0.000000
-11.384286 5.210096 0.000000 0.000000
-11.302237 5.210096 0.000000 0.000000
-11.220189 5.210096 0.000000 0.000000
-11.138140 5.210096 0.000000 0.000000
-11.056091 5.210096 0.000000 0.000000
-10.974042 5.210096 0.000000 0.000000
-10.891993 5.210096 0.000000 0.000000
-10.809945 5.210096 0.000000 0.000000
-10.727896 5.210096 0.000000 0.000000
-10.645847 5.210096 0.000000 0.000000
-10.563798 5.210096 0.000000 0.000000
-10.481749 5.210096 0.000000 0.000000
-10.399701 5.210096 0.000000 0.000000
-10.317652 5.210096 0.000000 0.000000
-10.235603 5.210096 0.000000 0.000000
-10.153554 5.210096 0.000000 0.000000
-10.071505 5.210096 0.000000 0.000000
-9.989457 5.210096 0.000000 0.000000
-9.907408 5.210096 0.000000 0.000000
-9.825359 5.210096 0.000000 0.000000
-9.743310 5.210096 0.000000 0.000000
-9.661261 5.210096 0.000000 0.000000
-9.579213 5.210096 0.000000 0.000000
-9.497164 5.210096 0.000000 0.000000
-9.415115 5.210096 0.000000 0.000000
-9.333066 5.210096 0.000000 0.000000
-9.251017 5.210096 0.000000 0.000000
-9.168969 5.210096 0.000000 0.000000
-9.086920 5.210096 0.000000 0.000000
-9.004871 5.210096 0.000000 0.000000
-8.922822 5.210096 0.000000 0.000000
-8.840773 5.210096 0.000000 0.000000
-8.758724 5.210096 0.000000 0.000000
-8.676676 5.210096 0.000000 0.000000
-8.594627 5.210096 0.000000 0.000000
-8.512578 5.210096 0.000000 0.000000
-8.430529 5.210096 0.000000 0.000000
-8.348480 5.210096 0.000000 0.000000
-8.266432 5.210096 0.000000 0.000000
-8.184383 5.210096 0.000000 0.000000
-8.102334 5.210096 0.000000 0.000000
-8.020285 5.210096 0.000000 0.000000
-7.938236 5.210096 0.000000 0.000000
-7.856188 5.210096 0.000000 0.000000
-7.774139 5.210096 0.000000 0.000000
-7.692090 5.210096 0.000000 0.000000
-7.610041 5.210096 0.000000 0.000000
-7.527992 5.210096 0.000000 0.000000
-7.445944 5.210096 0.000000 0.000000
-7.363895 5.210096 0.000000 0.000000
-7.281846 5.210096 0.000000 0.000000
-7.199797 5.210096 0.000000 0.000000
-7.117748 5.210096 0.000000 0.000000
-7.035700 5.210096 0.000000 0.000000
-6.953651 5.210096 0.000000 0.000000
-6.871602 5.210096 0.000000 0.000000
-6.789553 5.210096 0.000000 0.000000
-6.707504 5.210096 0.000000 0.000000
-6.625456 5.210096 0.000000 0.000000
-6.543407 5.210096 0.000000 0.000000
-6.461358 5.210096 0.000000 0.000000
-6.379309 5.210096 0.000000 0.000000
-6.297260 5.210096 0.000000 0.000000
-6.215212 5.210096 0.000000 0.000000
-6.133163 5.210096 0.000000 0.000000
-6.051114 5.210096 0.000000 0.000000
-5.969065 5.210096 0.000000 0.000000
-5.887016 5.210096 0.000000 0.000000
-5.804968 5.210096 0.000000 0.000000
-5.722919 5.210096 0.000000 0.000000
-5.640870 5.210096 0.000000 0.000000
-5.558821 5.210096 0.000000 0.000000
-5.476772 5.210096 0.000000 0.000000
-5.394724 5.210096 0.000000 0.000000
-5.312675 5.210096 0.000000 0.000000
-5.230626 5.210096 0.000000 0.000000
-5.148577 5.210096 0.000000 0.000000
-5.066528 5.210096 0.000000 0.000000
-4.984480 5.210096 0.000000 0.000000
-4.902431 5.210096 0.000000 0.000000
-4.820382 5.210096 0.000000 0.000000
-4.738333 5.210096 0.000000 0.000000
-4.656284 5.210096 0.000000 0.000000
-4.574236 5.210096 0.000000 0.000000
-4.492187 5.210096 0.000000 0.000000
-4.410138 5.210096 0.000000 0.000000
-4.328089 5.210096 0.000000 0.000000
-4.246040 5.210096 0.000000 0.000000
-4.163991 5.210096 0.000000 0.000000
-4.081943 5.210096 0.000000 0.000000
-3.999894 5.210096 0.000000 0.000000
-3.917845 5.210096 0.000000 0.000000
-3.835796 5.210096 0.000000 0.000000
-3.753747 5.210096 0.000000 0.000000
-3.671699 5.210096 0.000000 0.000000
-3.589650 5.210096 0.000000 0.000000
-3.507601 5.210096 0.000000 0.000000
-3.425552 5.210096 0.000000 0.000000
-3.343503 5.210096 0.000000 0.000000
-3.261455 5.210096 0.000000 0.000000
-3.179406 5.210096 0.000000 0.000000
-3.097357 5.210096 0.000000 0.000000
-3.015308 5.210096 0.000000 0.000000
-2.933259 5.210096 0.000000 0.000000
-2.851211 5.210096 0.000000 0.000000
-2.769162 5.210096 0.000000 0.000000
-2.687113 5.210096 0.000000 0.000000
-2.605064 5.210096 0.000000 0.000000
-2.523015 5.210096 0.000000 0.000000
-2.440967 5.210096 0.000000 0.000000
-2.358918 5.210096 0.000000 0.000000
-2.276869 5.210096 0.000000 0.000000
-2.194820 5.210096 -0.143478 -2.264507
-2.112771 5.210096 -0.131978 -2.266285
-2.030723 5.210096 -0.105036 -2.279512
-1.948674 5.210096 -0.069396 -2.297389
-1.866625 5.210096 -0.033834 -2.304881
-1.784576 5.210096 -0.003927 -2.291836
-1.702527 5.210096 0.022821 -2.255696
-1.620479 5.210096 0.056642 -2.213350
-1.538430 5.210096 0.091154 -2.185485
-1.456381 5.210096 0.113549 -2.171844
-1.374332 5.210096 0.120276 -2.173583
-1.292283 5.210096 0.104865 -2.192398
-1.210235 5.210096 0.066103 -2.215733
-1.128186 5.210096 0.017874 -2.213640
-1.046137 5.210096 -0.023308 -2.181310
-0.964088 5.210096 -0.041856 -2.133944
-0.882039 5.210096 -0.035457 -2.080004
-0.799991 5.210096 -0.023459 -2.016001
-0.717942 5.210096 -0.030709 -1.935583
-0.635893 5.210096 -0.060241 -1.842321
-0.553844 5.210096 -0.090670 -1.742610
-0.471795 5.210096 -0.110142 -1.630932
-0.389747 5.210096 -0.103972 -1.498511
-0.307698 5.210096 0.000000 0.000000
-0.225649 5.210096 0.000000 0.000000
-0.143600 5.210096 0.000000 0.000000
-0.061551 5.210096 0.000000 0.000000
0.020497 5.210096 0.000000 0.000000
0.102546 5.210096 0.000000 0.000000
0.184595 5.210096 0.000000 0.000000
0.266644 5.210096 0.000000 0.000000
0.348693 5.210096 0.000000 0.000000
0.430742 5.210096 0.000000 0.000000
0.512790 5.210096 0.000000 0.000000
0.594839 5.210096 0.000000 0.000000
0.676888 5.210096 0.000000 0.000000
-25.824876 5.128047 0.000000 0.000000
-25.742827 5.128047 0.000000 0.000000
-25.660778 5.128047 0.000000 0.000000
-25.578729 5.128047 0.000000 0.000000
-25.496680 5.128047 0.000000 0.000000
-25.414632 5.128047 0.000000 0.000000
-25.332583 5.128047 0.000000 0.000000
-25.250534 5.128047 0.000000 0.000000
-25.168485 5.128047 0.000000 0.000000
-25.086436 5.128047 0.000000 0.000000
-25.004388 5.128047 0.000000 0.000000
-24.922339 5.128047 0.000000 0.000000
-24.840290 5.128047 0.000000 0.000000
-24.758241 5.128047 0.000000 0.000000
-24.676192 5.128047 0.000000 0.000000
-24.594144 5.128047 0.000000 0.000000
-24.512095 5.128047 0.000000 0.000000
-24.430046 5.128047 0.000000 0.000000
-24.347997 5.128047 0.000000 0.000000
-24.265948 5.128047 0.000000 0.000000
-24.183900 5.128047 0.000000 0.000000
-24.101851 5.128047 0.000000 0.000000
-24.019802 5.128047 0.000000 0.000000
-23.937753 5.128047 0.000000 0.000000
-23.855704 5.128047 0.000000 0.000000
-23.773656 5.128047 0.000000 0.000000
-23.691607 5.128047 0.000000 0.000000
-23.609558 5.128047 0.000000 0.000000
-23.527509 5.128047 0.000000 0.000000
-23.445460 5.128047 0.000000 0.000000
-23.363412 5.128047 0.000000 0.000000
-23.281363 5.128047 0.000000 0.000000
-23.199314 5.128047 0.000000 0.000000
-23.117265 5.128047 0.000000 0.000000
-23.035216 5.128047 0.000000 0.000000
-22.953168 5.128047 0.000000 0.000000
-22.871119 5.128047 0.000000 0.000000
-22.789070 5.128047 0.000000 0.000000
-22.707021 5.128047 0.000000 0.000000
-22.624972 5.128047 0.000000 0.000000
-22.542923 5.128047 0.000000 0.000000
-22.460875 5.128047 0.000000 0.000000
-22.378826 5.128047 0.000000 0.000000
-22.296777 5.128047 0.000000 0.000000
-22.214728 5.128047 0.000000 0.000000
-22.132679 5.128047 0.000000 0.000000
-22.050631 5.128047 0.000000 0.000000
-21.968582 5.128047 0.000000 0.000000
-21.886533 5.128047 0.000000 0.000000
-21.804484 5.128047 0.000000 0.000000
-21.722435 5.128047 0.000000 0.000000
-21.640387 5.128047 0.000000 0.000000
-21.558338 5.128047 0.000000 0.000000
-21.476289 5.128047 0.000000 0.000000
-21.394240 5.128047 0.000000 0.000000
-21.312191 5.128047 0.000000 0.000000
-21.230143 5.128047 0.000000 0.000000
-21.148094 5.128047 0.000000 0.000000
-21.066045 5.128047 0.000000 0.000000
-20.983996 5.128047 0.000000 0.000000
-20.901947 5.128047 0.000000 0.000000
-20.819899 5.128047 0.000000 0.000000
-20.737850 5.128047 0.000000 0.000000
-20.655801 5.128047 0.000000 0.000000
-20.573752 5.128047 0.000000 0.000000
-20.491703 5.128047 0.000000 0.000000
-20.409655 5.128047 0.000000 0.000000
-20.327606 5.128047 0.000000 0.000000
-20.245557 5.128047 0.000000 0.000000
-20.163508 5.128047 0.000000 0.000000
-20.081459 5.128047 0.000000 0.000000
-19.999411 5.128047 0.000000 0.000000
-19.917362 5.128047 0.000000 0.000000
-19.835313 5.128047 0.000000 0.000000
-19.753264 5.128047 0.000000 0.000000
-19.671215 5.128047 0.000000 0.000000
-19.589167 5.128047 0.000000 0.000000
-19.507118 5.128047 0.000000 0.000000
-19.425069 5.128047 0.000000 0.000000
-19.343020 5.128047 0.000000 0.000000
-19.260971 5.128047 0.000000 0.000000
-19.178923 5.128047 0.000000 0.000000
-19.096874 5.128047 0.000000 0.000000
-19.014825 5.128047 0.000000 0.000000
-18.932776 5.128047 0.000000 0.000000
-18.850727 5.128047 0.000000 0.000000
-18.768679 5.128047 0.000000 0.000000
-18.686630 5.128047 0.000000 0.000000
-18.604581 5.128047 0.000000 0.000000
-18.522532 5.128047 0.000000 0.000000
-18.440483 5.128047 0.000000 0.000000
-18.358435 5.128047 0.000000 0.000000
-18.276386 5.128047 0.000000 0.000000
-18.194337 5.128047 0.000000 0.000000
-18.112288 5.128047 0.000000 0.000000
-18.030239 5.128047 0.000000 0.000000
-17.948190 5.128047 0.000000 0.000000
-17.866142 5.128047 0.000000 0.000000
-17.784093 5.128047 0.000000 0.000000
-17.702044 5.128047 0.000000 0.000000
-17.619995 5.128047 0.000000 0.000000
-17.537946 5.128047 0.000000 0.000000
-17.455898 5.128047 0.000000 0.000000
-17.373849 5.128047 0.000000 0.000000
-17.291800 5.128047 0.000000 0.000000
-17.209751 5.128047 0.000000 0.000000
-17.127702 5.128047 0.000000 0.000000
-17.045654 5.128047 0.000000 0.000000
-16.963605 5.128047 0.000000 0.000000
-16.881556 5.128047 0.000000 0.000000
-16.799507 5.128047 0.000000 0.000000
-16.717458 5.128047 0.000000 0.000000
-16.635410 5.128047 0.000000 0.000000
-16.553361 5.128047 0.000000 0.000000
-16.471312 5.128047 0.000000 0.000000
-16.389263 5.128047 0.000000 0.000000
-16.307214 5.128047 0.000000 0.000000
-16.225166 5.128047 0.000000 0.000000
-16.143117 5.128047 0.000000 0.000000
-16.061068 5.128047 0.000000 0.000000
-15.979019 5.128047 0.000000 0.000000
-15.896970 5.128047 0.000000 0.000000
-15.814922 5.128047 0.000000 0.000000
-15.732873 5.128047 0.000000 0.000000
-15.650824 5.128047 0.000000 0.000000
-15.568775 5.128047 0.000000 0.000000
-15.486726 5.128047 0.000000 0.000000
-15.404678 5.128047 0.000000 0.000000
-15.322629 5.128047 0.000000 0.000000
-15.240580 5.128047 0.000000 0.000000
-15.158531 5.128047 0.000000 0.000000
-15.076482 5.128047 0.000000 0.000000
-14.994434 5.128047 0.000000 0.000000
-14.912385 5.128047 0.000000 0.000000
-14.830336 5.128047 0.000000 0.000000
-14.748287 5.128047 0.000000 0.000000
-14.666238 5.128047 0.000000 0.000000
-14.584190 5.128047 0.000000 0.000000
-14.502141 5.128047 0.000000 0.000000
-14.420092 5.128047 0.000000 0.000000
-14.338043 5.128047 0.000000 0.000000
-14.255994 5.128047 0.000000 0.000000
-14.173946 5.128047 0.000000 0.000000
-14.091897 5.128047 0.000000 0.000000
-14.009848 5.128047 0.000000 0.000000
-13.927799 5.128047 0.000000 0.000000
-13.845750 5.128047 0.000000 0.000000
-13.763702 5.128047 0.000000 0.000000
-13.681653 5.128047 0.000000 0.000000
-13.599604 5.128047 0.000000 0.000000
-13.517555 5.128047 0.000000 0.000000
-13.435506 5.128047 0.000000 0.000000
-13.353457 5.128047 0.000000 0.000000
-13.271409 5.128047 0.000000 0.000000
-13.189360 5.128047 0.000000 0.000000
-13.107311 5.128047 0.000000 0.000000
-13.025262 5.128047 0.000000 0.000000
-12.943213 5.128047 0.000000 0.000000
-12.861165 5.128047 0.000000 0.000000
-12.779116 5.128047 0.000000 0.000000
-12.697067 5.128047 0.000000 0.000000
-12.615018 5.128047 0.000000 0.000000
-12.532969 5.128047 0.000000 0.000000
-12.450921 5.128047 0.000000 0.000000
-12.368872 5.128047 0.000000 0.000000
-12.286823 5.128047 0.000000 0.000000
-12.204774 5.128047 0.000000 0.000000
-12.122725 5.128047 0.000000 0.000000
-12.040677 5.128047 0.000000 0.000000
-11.958628 5.128047 0.000000 0.000000
-11.876579 5.128047 0.000000 0.000000
-11.794530 5.128047 0.000000 0.000000
-11.712481 5.128047 0.000000 0.000000
-11.630433 5.128047 0.000000 0.000000
-11.548384 5.128047 0.000000 0.000000
-11.466335 5.128047 0.000000 0.000000
-11.384286 5.128047 0.000000 0.000000
-11.302237 5.128047 0.000000 0.000000
-11.220189 5.128047 0.000000 0.000000
-11.138140 5.128047 0.000000 0.000000
-11.056091 5.128047 0.000000 0.000000
-10.974042 5.128047 0.000000 0.000000
-10.891993 5.128047 0.000000 0.000000
-10.809945 5.128047 0.000000 0.000000
-10.727896 5.128047 0.000000 0.000000
-10.645847 5.128047 0.000000 0.000000
-10.563798 5.128047 0.000000 0.000000
-10.481749 5.128047 0.000000 0.000000
-10.399701 5.128047 0.000000 0.000000
-10.317652 5.128047 0.000000 0.000000
-10.235603 5.128047 0.000000 0.000000
-10.153554 5.128047 0.000000 0.000000
-10.071505 5.128047 0.000000 0.000000
-9.989457 5.128047 0.000000 0.000000
-9.907408 5.128047 0.000000 0.000000
-9.825359 5.128047 0.000000 0.000000
-9.743310 5.128047 0.000000 0.000000
-9.661261 5.128047 0.000000 0.000000
-9.579213 5.128047 0.000000 0.000000
-9.497164 5.128047 0.000000 0.000000
-9.415115 5.128047 0.000000 0.000000
-9.333066 5.128047 0.000000 0.000000
-9.251017 5.128047 0.000000 0.000000
-9.168969 5.128047 0.000000 0.000000
-9.086920 5.128047 0.000000 0.000000
-9.004871 5.128047 0.000000 0.000000
-8.922822 5.128047 0.000000 0.000000
-8.840773 5.128047 -0.007444 -3.629014
-8.758724 5.128047 -0.015499 -3.597498
-8.676676 5.128047 -0.030300 -3.571745
-8.594627 5.128047 -0.049404 -3.547852
-8.512578 5.128047 -0.068313 -3.526695
-8.430529 5.128047 -0.080733 -3.509934
-8.348480 5.128047 -0.078966 -3.497535
-8.266432 5.128047 -0.060249 -3.479425
-8.184383 5.128047 -0.037571 -3.449256
-8.102334 5.128047 -0.028605 -3.428801
-8.020285 5.128047 -0.036908 -3.416769
-7.938236 5.128047 -0.062648 -3.408558
-7.856188 5.128047 -0.097950 -3.402037
-7.774139 5.128047 -0.126093 -3.398510
-7.692090 5.128047 -0.143133 -3.397450
-7.610041 5.128047 -0.149891 -3.399528
-7.527992 5.128047 -0.151279 -3.409472
-7.445944 5.128047 -0.152305 -3.425578
-7.363895 5.128047 -0.152723 -3.440437
-7.281846 5.128047 -0.150829 -3.450225
-7.199797 5.128047 -0.146277 -3.454877
-7.117748 5.128047 -0.139126 -3.455691
-7.035700 5.128047 -0.129705 -3.454092
-6.953651 5.128047 -0.119264 -3.451947
-6.871602 5.128047 -0.113011 -3.456151
-6.789553 5.128047 -0.113218 -3.460983
-6.707504 5.128047 -0.116013 -3.462388
-6.625456 5.128047 -0.118615 -3.463922
-6.543407 5.128047 -0.121092 -3.467446
-6.461358 5.128047 -0.124663 -3.474661
-6.379309 5.128047 -0.130477 -3.487797
-6.297260 5.128047 -0.137809 -3.503985
-6.215212 5.128047 -0.143751 -3.512595
-6.133163 5.128047 -0.146099 -3.506496
-6.051114 5.128047 -0.147940 -3.485875
-5.969065 5.128047 -0.150693 -3.471570
-5.887016 5.128047 -0.154375 -3.464670
-5.804968 5.128047 -0.158437 -3.462754
-5.722919 5.128047 -0.162271 -3.463358
-5.640870 5.128047 -0.164849 -3.465653
-5.558821 5.128047 -0.164656 -3.471083
-5.476772 5.128047 -0.161054 -3.481965
-5.394724 5.128047 -0.160548 -3.489194
-5.312675 5.128047 -0.198137 -3.485532
-5.230626 5.128047 -0.221624 -3.478637
-5.148577 5.128047 -0.231456 -3.466594
-5.066528 5.128047 -0.230627 -3.448496
-4.984480 5.128047 -0.222837 -3.424173
-4.902431 5.128047 -0.210669 -3.393440
-4.820382 5.128047 -0.196426 -3.356563
-4.738333 5.128047 -0.179146 -3.314361
-4.656284 5.128047 -0.164389 -3.267554
-4.574236 5.128047 -0.143633 -3.218087
-4.492187 5.128047 -0.128198 -3.170316
-4.410138 5.128047 -0.129427 -3.128288
-4.328089 5.128047 -0.155255 -3.094829
-4.246040 5.128047 -0.198925 -3.075409
-4.163991 5.128047 -0.215195 -3.063181
-4.081943 5.128047 -0.194855 -3.053774
-3.999894 5.128047 -0.169818 -3.048234
-3.917845 5.128047 -0.160502 -3.039797
-3.835796 5.128047 -0.161303 -3.016059
-3.753747 5.128047 -0.164391 -2.973823
-3.671699 5.128047 -0.163735 -2.918770
-3.589650 5.128047 -0.158185 -2.872359
-3.507601 5.128047 -0.157416 -2.837675
-3.425552 5.128047 -0.166366 -2.802735
-3.343503 5.128047 -0.180092 -2.757007
-3.261455 5.128047 -0.189822 -2.697591
-3.179406 5.128047 -0.195835 -2.630356
-3.097357 5.128047 -0.190736 -2.575467
-3.015308 5.128047 -0.170561 -2.533265
-2.933259 5.128047 -0.147276 -2.497949
-2.851211 5.128047 -0.133756 -2.463255
-2.769162 5.128047 -0.135567 -2.425890
-2.687113 5.128047 -0.150550 -2.386261
-2.605064 5.128047 -0.163127 -2.347920
-2.523015 5.128047 -0.153499 -2.322509
-2.440967 5.128047 -0.126017 -2.308648
-2.358918 5.128047 -0.125454 -2.290844
-2.276869 5.128047 -0.141166 -2.270857
-2.194820 5.128047 -0.146846 -2.257846
-2.112771 5.128047 -0.135240 -2.257256
-2.030723 5.128047 -0.108104 -2.268740
-1.948674 5.128047 -0.072120 -2.286184
-1.866625 5.128047 -0.036021 -2.295024
-1.784576 5.128047 -0.006459 -2.285717
-1.702527 5.128047 0.017188 -2.259094
-1.620479 5.128047 0.044379 -2.231556
-1.538430 5.128047 0.076287 -2.210551
-1.456381 5.128047 0.101501 -2.197327
-1.374332 5.128047 0.113368 -2.197790
-1.292283 5.128047 0.107164 -2.216278
-1.210235 5.128047 0.083112 -2.238153
-1.128186 5.128047 0.048109 -2.235363
-1.046137 5.128047 0.016227 -2.206270
-0.964088 5.128047 0.001065 -2.160719
-0.882039 5.128047 0.004741 -2.105000
-0.799991 5.128047 0.008226 -2.035950
-0.717942 5.128047 -0.009774 -1.949317
-0.635893 5.128047 -0.047761 -1.851181
-0.553844 5.128047 -0.086445 -1.749605
-0.471795 5.128047 -0.113192 -1.640067
-0.389747 5.128047 -0.112247 -1.510364
-0.307698 5.128047 -0.078283 -1.346640
-0.225649 5.128047 -0.037066 -1.167830
-0.143600 5.128047 0.000000 0.000000
-0.061551 5.128047 0.000000 0.000000
0.020497 5.128047 0.000000 0.000000
0.102546 5.128047 0.000000 0.000000
0.184595 5.128047 0.000000 0.000000
0.266644 5.128047 0.000000 0.000000
0.348693 5.128047 0.000000 0.000000
0.430742 5.128047 0.000000 0.000000
0.512790 5.128047 0.000000 0.000000
0.594839 5.128047 0.000000 0.000000
0.676888 5.128047 0.000000 0.000000
-25.824876 5.045998 0.000000 0.000000
-25.742827 5.045998 0.000000 0.000000
-25.660778 5.045998 0.000000 0.000000
-25.578729 5.045998 0.000000 0.000000
-25.496680 5.045998 0.000000 0.000000
-25.414632 5.045998 0.000000 0.000000
-25.332583 5.045998 0.000000 0.000000
-25.250534 5.045998 0.000000 0.000000
-25.168485 5.045998 0.000000 0.000000
-25.086436 5.045998 0.000000 0.000000
-25.004388 5.045998 0.000000 0.000000
-24.922339 5.045998 0.000000 0.000000
-24.840290 5.045998 0.000000 0.000000
-24.758241 5.045998 0.000000 0.000000
-24.676192 5.045998 0.000000 0.000000
-24.594144 5.045998 0.000000 0.000000
-24.512095 5.045998 0.000000 0.000000
-24.430046 5.045998 0.000000 0.000000
-24.347997 5.045998 0.000000 0.000000
-24.265948 5.045998 0.000000 0.000000
-24.183900 5.045998 0.000000 0.000000
-24.101851 5.045998 0.000000 0.000000
-24.019802 5.045998 0.000000 0.000000
-23.937753 5.045998 0.000000 0.000000
-23.855704 5.045998 0.000000 0.000000
-23.773656 5.045998 0.000000 0.000000
-23.691607 5.045998 0.000000 0.000000
-23.609558 5.045998 0.000000 0.000000
-23.527509 5.045998 0.000000 0.000000
-23.445460 5.045998 0.000000 0.000000
-23.363412 5.045998 0.000000 0.000000
-23.281363 5.045998 0.000000 0.000000
-23.199314 5.045998 0.000000 0.000000
-23.117265 5.045998 0.000000 0.000000
-23.035216 5.045998 0.000000 0.000000
-22.953168 5.045998 0.000000 0.000000
-22.871119 5.045998 0.000000 0.000000
-22.789070 5.045998 0.000000 0.000000
-22.707021 5.045998 0.000000 0.000000
-22.624972 5.045998 0.000000 0.000000
-22.542923 5.045998 0.000000 0.000000
-22.460875 5.045998 0.000000 0.000000
-22.378826 5.045998 0.000000 0.000000
-22.296777 5.045998 0.000000 0.000000
-22.214728 5.045998 0.000000 0.000000
-22.132679 5.045998 0.000000 0.000000
-22.050631 5.045998 0.000000 0.000000
-21.968582 5.045998 0.000000 0.000000
-21.886533 5.045998 0.000000 0.000000
-21.804484 5.045998 0.000000 0.000000
-21.722435 5.045998 0.000000 0.000000
-21.640387 5.045998 0.000000 0.000000
-21.558338 5.045998 0.000000 0.000000
-21.476289 5.045998 0.000000 0.000000
-21.394240 5.045998 0.000000 0.000000
-21.312191 5.045998 0.000000 0.000000
-21.230143 5.045998 0.000000 0.000000
-21.148094 5.045998 0.000000 0.000000
-21.066045 5.045998 0.000000 0.000000
-20.983996 5.045998 0.000000 0.000000
-20.901947 5.045998 0.000000 0.000000
-20.819899 5.045998 0.000000 0.000000
-20.737850 5.045998 0.000000 0.000000
-20.655801 5.045998 0.000000 0.000000
-20.573752 5.045998 0.000000 0.000000
-20.491703 5.045998 0.000000 0.000000
-20.409655 5.045998 0.000000 0.000000
-20.327606 5.045998 0.000000 0.000000
-20.245557 5.045998 0.000000 0.000000
-20.163508 5.045998 0.000000 0.000000
-20.081459 5.045998 0.000000 0.000000
-19.999411 5.045998 0.000000 0.000000
-19.917362 5.045998 0.000000 0.000000
-19.835313 5.045998 0.000000 0.000000
-19.753264 5.045998 0.000000 0.000000
-19.671215 5.045998 0.000000 0.000000
-19.589167 5.045998 0.000000 0.000000
-19.507118 5.045998 0.000000 0.000000
-19.425069 5.045998 0.000000 0.000000
-19.343020 5.045998 0.000000 0.000000
-19.260971 5.045998 0.000000 0.000000
-19.178923 5.045998 0.000000 0.000000
-19.096874 5.045998 0.000000 0.000000
-19.014825 5.045998 0.000000 0.000000
-18.932776 5.045998 0.000000 0.000000
-18.850727 5.045998 0.000000 0.000000
-18.768679 5.045998 0.000000 0.000000
-18.686630 5.045998 0.000000 0.000000
-18.604581 5.045998 0.000000 0.000000
-18.522532 5.045998 0.000000 0.000000
-18.440483 5.045998 0.000000 0.000000
-18.358435 5.045998 0.000000 0.000000
-18.276386 5.045998 0.000000 0.000000
-18.194337 5.045998 0.000000 0.000000
-18.112288 5.045998 0.000000 0.000000
-18.030239 5.045998 0.000000 0.000000
-17.948190 5.045998 0.000000 0.000000
-17.866142 5.045998 0.000000 0.000000
-17.784093 5.045998 0.000000 0.000000
-17.702044 5.045998 0.000000 0.000000
-17.619995 5.045998 0.000000 0.000000
-17.537946 5.045998 0.000000 0.000000
-17.455898 5.045998 0.000000 0.000000
-17.373849 5.045998 0.000000 0.000000
-17.291800 5.045998 0.000000 0.000000
-17.209751 5.045998 0.000000 0.000000
-17.127702 5.045998 0.000000 0.000000
-17.045654 5.045998 0.000000 0.000000
-16.963605 5.045998 0.000000 0.000000
-16.881556 5.045998 0.190854 -4.420685
-16.799507 5.045998 0.177568 -4.416611
-16.717458 5.045998 0.162278 -4.413723
-16.635410 5.045998 0.156025 -4.414320
-16.553361 5.045998 0.171661 -4.423608
-16.471312 5.045998 0.198669 -4.437279
-16.389263 5.045998 0.217136 -4.446810
-16.307214 5.045998 0.216339 -4.446652
-16.225166 5.045998 0.195223 -4.434390
-16.143117 5.045998 0.167396 -4.415013