TITLE = "B00903"
VARIABLES = "x", "y", "Vx", "Vy"
ZONE T="Frame 0", I=324, J=131
-25.824876 5.210096 0.000000 0.000000
-25.742827 5.210096 0.000000 0.000000
-25.660778 5.210096 0.000000 0.000000
-25.578729 5.210096 0.000000 0.000000
-25.496680 5.210096 0.000000 0.000000
-25.414632 5.210096 0.000000 0.000000
-25.332583 5.210096 0.000000 0.000000
-25.250534 5.210096 0.000000 0.000000
-25.168485 5.210096 0.000000 0.000000
-25.086436 5.210096 0.000000 0.000000
-25.004388 5.210096 0.000000 0.000000
-24.922339 5.210096 0.000000 0.000000
-24.840290 5.210096 0.000000 0.000000
-24.758241 5.210096 0.000000 0.000000
-24.676192 5.210096 0.000000 0.000000
-24.594144 5.210096 0.000000 0.000000
-24.512095 5.210096 0.000000 0.000000
-24.430046 5.210096 0.000000 0.000000
-24.347997 5.210096 0.000000 0.000000
-24.265948 5.210096 0.000000 0.000000
-24.183900 5.210096 0.000000 0.000000
-24.101851 5.210096 0.000000 0.000000
-24.019802 5.210096 0.000000 0.000000
-23.937753 5.210096 0.000000 0.000000
-23.855704 5.210096 0.000000 0.000000
-23.773656 5.210096 0.000000 0.000000
-23.691607 5.210096 0.000000 0.000000
-23.609558 5.210096 0.000000 0.000000
-23.527509 5.210096 0.000000 0.000000
-23.445460 5.210096 0.000000 0.000000
-23.363412 5.210096 0.000000 0.000000
-23.281363 5.210096 0.000000 0.000000
-23.199314 5.210096 0.000000 0.000000
-23.117265 5.210096 0.000000 0.000000
-23.035216 5.210096 0.000000 0.000000
-22.953168 5.210096 0.000000 0.000000
-22.871119 5.210096 0.000000 0.000000
-22.789070 5.210096 0.000000 0.000000
-22.707021 5.210096 0.000000 0.000000
-22.624972 5.210096 0.000000 0.000000
-22.542923 5.210096 0.000000 0.000000
-22.460875 5.210096 0.000000 0.000000
-22.378826 5.210096 0.000000 0.000000
-22.296777 5.210096 0.000000 0.000000
-22.214728 5.210096 0.000000 0.000000
-22.132679 5.210096 0.000000 0.000000
-22.050631 5.210096 0.000000 0.000000
-21.968582 5.210096 0.000000 0.000000
-21.886533 5.210096 0.000000 0.000000
-21.804484 5.210096 0.000000 0.000000
-21.722435 5.210096 0.000000 0.000000
-21.640387 5.210096 0.000000 0.000000
-21.558338 5.210096 0.000000 0.000000
-21.476289 5.210096 0.000000 0.000000
-21.394240 5.210096 0.000000 0.000000
-21.312191 5.210096 0.000000 0.000000
-21.230143 5.210096 0.000000 0.000000
-21.148094 5.210096 0.000000 0.000000
-21.066045 5.210096 0.000000 0.000000
-20.983996 5.210096 0.000000 0.000000
-20.901947 5.210096 0.000000 0.000000
-20.819899 5.210096 0.000000 0.000000
-20.737850 5.210096 0.000000 0.000000
-20.655801 5.210096 0.000000 0.000000
-20.573752 5.210096 0.000000 0.000000
-20.491703 5.210096 0.000000 0.000000
-20.409655 5.210096 0.000000 0.000000
-20.327606 5.210096 0.000000 0.000000
-20.245557 5.210096 0.000000 0.000000
-20.163508 5.210096 0.000000 0.000000
-20.081459 5.210096 0.000000 0.000000
-19.999411 5.210096 0.000000 0.000000
-19.917362 5.210096 0.000000 0.000000
-19.835313 5.210096 0.000000 0.000000
-19.753264 5.210096 0.000000 0.000000
-19.671215 5.210096 0.000000 0.000000
-19.589167 5.210096 0.000000 0.000000
-19.507118 5.210096 0.000000 0.000000
-19.425069 5.210096 0.000000 0.000000
-19.343020 5.210096 0.000000 0.000000
-19.260971 5.210096 0.000000 0.000000
-19.178923 5.210096 0.000000 0.000000
-19.096874 5.210096 0.000000 0.000000
-19.014825 5.210096 0.000000 0.000000
-18.932776 5.210096 0.000000 0.000000
-18.850727 5.210096 0.000000 0.000000
-18.768679 5.210096 0.000000 0.000000
-18.686630 5.210096 0.000000 0.000000
-18.604581 5.210096 0.000000 0.000000
-18.522532 5.210096 0.000000 0.000000
-18.440483 5.210096 0.000000 0.000000
-18.358435 5.210096 0.000000 0.000000
-18.276386 5.210096 0.000000 0.000000
-18.194337 5.210096 0.000000 0.000000
-18.112288 5.210096 0.000000 0.000000
-18.030239 5.210096 0.000000 0.000000
-17.948190 5.210096 0.000000 0.000000
-17.866142 5.210096 0.000000 0.000000
-17.784093 5.210096 0.000000 0.000000
-17.702044 5.210096 0.000000 0.000000
-17.619995 5.210096 0.000000 0.000000
-17.537946 5.210096 0.000000 0.000000
-17.455898 5.210096 0.000000 0.000000
-17.373849 5.210096 0.000000 0.000000
-17.291800 5.210096 0.000000 0.000000
-17.209751 5.210096 0.000000 0.000000
-17.127702 5.210096 0.000000 0.000000
-17.045654 5.210096 0.000000 0.000000
-16.963605 5.210096 0.000000 0.000000
-16.881556 5.210096 0.000000 0.000000
-16.799507 5.210096 0.000000 0.000000
-16.717458 5.210096 0.000000 0.000000
-16.635410 5.210096 0.000000 0.000000
-16.553361 5.210096 0.000000 0.000000
-16.471312 5.210096 0.000000 0.000000
-16.389263 5.210096 0.000000 0.000000
-16.307214 5.210096 0.000000 0.000000
-16.225166 5.210096 0.000000 0.000000
-16.143117 5.210096 0.000000 0.000000
-16.061068 5.210096 0.000000 0.000000
-15.979019 5.210096 0.000000 0.000000
-15.896970 5.210096 0.000000 0.000000
-15.814922 5.210096 0.000000 0.000000
-15.732873 5.210096 0.000000 0.000000
-15.650824 5.210096 0.000000 0.000000
-15.568775 5.210096 0.000000 0.000000
-15.486726 5.210096 0.000000 0.000000
-15.404678 5.210096 0.000000 0.000000
-15.322629 5.210096 0.000000 0.000000
-15.240580 5.210096 0.000000 0.000000
-15.158531 5.210096 0.000000 0.000000
-15.076482 5.210096 0.000000 0.000000
-14.994434 5.210096 0.000000 0.000000
-14.912385 5.210096 0.000000 0.000000
-14.830336 5.210096 0.000000 0.000000
-14.748287 5.210096 0.000000 0.000000
-14.666238 5.210096 0.000000 0.000000
-14.584190 5.210096 0.000000 0.000000
-14.502141 5.210096 0.000000 0.000000
-14.420092 5.210096 0.000000 0.000000
-14.338043 5.210096 0.000000 0.000000
-14.255994 5.210096 0.000000 0.000000
-14.173946 5.210096 0.000000 0.000000
-14.091897 5.210096 0.000000 0.000000
-14.009848 5.210096 0.000000 0.000000
-13.927799 5.210096 0.000000 0.000000
-13.845750 5.210096 0.000000 0.000000
-13.763702 5.210096 0.000000 0.000000
-13.681653 5.210096 0.000000 0.000000
-13.599604 5.210096 0.000000 0.000000
-13.517555 5.210096 0.000000 0.000000
-13.435506 5.210096 0.000000 0.000000
-13.353457 5.210096 0.000000 0.000000
-13.271409 5.210096 0.000000 0.000000
-13.189360 5.210096 0.000000 0.000000
-13.107311 5.210096 0.000000 0.000000
-13.025262 5.210096 0.000000 0.000000
-12.943213 5.210096 0.000000 0.000000
-12.861165 5.210096 0.000000 0.000000
-12.779116 5.210096 0.000000 0.000000
-12.697067 5.210096 0.000000 0.000000
-12.615018 5.210096 0.000000 0.000000
-12.532969 5.210096 0.000000 0.000000
-12.450921 5.210096 0.000000 0.000000
-12.368872 5.210096 0.000000 0.000000
-12.286823 5.210096 0.000000 0.000000
-12.204774 5.210096 0.000000 0.000000
-12.122725 5.210096 0.000000 0.000000
-12.040677 5.210096 0.000000 0.000000
-11.958628 5.210096 0.000000 0.000000
-11.876579 5.210096 0.000000 0.000000
-11.794530 5.210096 0.000000 0.000000
-11.712481 5.210096 0.000000 0.000000
-11.630433 5.210096 0.000000 0.000000
-11.548384 5.210096 0.000000 0.000000
-11.466335 5.210096 0.000000 0.000000
-11.384286 5.210096 0.000000 0.000000
-11.302237 5.210096 0.000000 0.000000
-11.220189 5.210096 0.000000 0.000000
-11.138140 5.210096 0.000000 0.000000
-11.056091 5.210096 0.000000 0.000000
-10.974042 5.210096 0.000000 0.000000
-10.891993 5.210096 0.000000 0.000000
-10.809945 5.210096 0.000000 0.000000
-10.727896 5.210096 0.000000 0.000000
-10.645847 5.210096 0.000000 0.000000
-10.563798 5.210096 0.000000 0.000000
-10.481749 5.210096 0.000000 0.000000
-10.399701 5.210096 0.000000 0.000000
-10.317652 5.210096 0.000000 0.000000
-10.235603 5.210096 0.000000 0.000000
-10.153554 5.210096 0.000000 0.000000
-10.071505 5.210096 0.000000 0.000000
-9.989457 5.210096 0.000000 0.000000
-9.907408 5.210096 0.000000 0.000000
-9.825359 5.210096 0.000000 0.000000
-9.743310 5.210096 0.000000 0.000000
-9.661261 5.210096 0.000000 0.000000
-9.579213 5.210096 0.000000 0.000000
-9.497164 5.210096 0.000000 0.000000
-9.415115 5.210096 0.000000 0.000000
-9.333066 5.210096 0.000000 0.000000
-9.251017 5.210096 0.000000 0.000000
-9.168969 5.210096 0.000000 0.000000
-9.086920 5.210096 0.000000 0.000000
-9.004871 5.210096 0.000000 0.000000
-8.922822 5.210096 0.000000 0.000000
-8.840773 5.210096 0.000000 0.000000
-8.758724 5.210096 0.000000 0.000000
-8.676676 5.210096 0.000000 0.000000
-8.594627 5.210096 0.000000 0.000000
-8.512578 5.210096 0.000000 0.000000
-8.430529 5.210096 0.000000 0.000000
-8.348480 5.210096 0.000000 0.000000
-8.266432 5.210096 0.000000 0.000000
-8.184383 5.210096 0.000000 0.000000
-8.102334 5.210096 0.000000 0.000000
-8.020285 5.210096 0.000000 0.000000
-7.938236 5.210096 0.000000 0.000000
-7.856188 5.210096 0.000000 0.000000
-7.774139 5.210096 0.000000 0.000000
-7.692090 5.210096 0.000000 0.000000
-7.610041 5.210096 0.000000 0.000000
-7.527992 5.210096 0.000000 0.000000
-7.445944 5.210096 0.000000 0.000000
-7.363895 5.210096 0.000000 0.000000
-7.281846 5.210096 0.000000 0.000000
-7.199797 5.210096 0.000000 0.000000
-7.117748 5.210096 0.000000 0.000000
-7.035700 5.210096 0.000000 0.000000
-6.953651 5.210096 0.000000 0.000000
-6.871602 5.210096 0.000000 0.000000
-6.789553 5.210096 0.000000 0.000000
-6.707504 5.210096 0.000000 0.000000
-6.625456 5.210096 0.000000 0.000000
-6.543407 5.210096 0.000000 0.000000
-6.461358 5.210096 0.000000 0.000000
-6.379309 5.210096 0.000000 0.000000
-6.297260 5.210096 0.000000 0.000000
-6.215212 5.210096 0.000000 0.000000
-6.133163 5.210096 0.000000 0.000000
-6.051114 5.210096 0.000000 0.000000
-5.969065 5.210096 0.000000 0.000000
-5.887016 5.210096 0.000000 0.000000
-5.804968 5.210096 0.000000 0.000000
-5.722919 5.210096 0.000000 0.000000
-5.640870 5.210096 0.000000 0.000000
-5.558821 5.210096 0.000000 0.000000
-5.476772 5.210096 0.000000 0.000000
-5.394724 5.210096 0.000000 0.000000
-5.312675 5.210096 0.000000 0.000000
-5.230626 5.210096 0.000000 0.000000
-5.148577 5.210096 0.000000 0.000000
-5.066528 5.210096 0.000000 0.000000
-4.984480 5.210096 0.000000 0.000000
-4.902431 5.210096 0.000000 0.000000
-4.820382 5.210096 0.000000 0.000000
-4.738333 5.210096 0.000000 0.000000
-4.656284 5.210096 0.000000 0.000000
-4.574236 5.210096 0.000000 0.000000
-4.492187 5.210096 0.000000 0.000000
-4.410138 5.210096 0.000000 0.000000
-4.328089 5.210096 0.000000 0.000000
-4.246040 5.210096 0.000000 0.000000
-4.163991 5.210096 0.000000 0.000000
-4.081943 5.210096 0.000000 0.000000
-3.999894 5.210096 0.000000 0.000000
-3.917845 5.210096 0.000000 0.000000
-3.835796 5.210096 0.000000 0.000000
-3.753747 5.210096 0.000000 0.000000
-3.671699 5.210096 0.000000 0.000000
-3.589650 5.210096 0.000000 0.000000
-3.507601 5.210096 0.000000 0.000000
-3.425552 5.210096 0.000000 0.000000
-3.343503 5.210096 0.000000 0.000000
-3.261455 5.210096 0.000000 0.000000
-3.179406 5.210096 0.000000 0.000000
-3.097357 5.210096 0.000000 0.000000
-3.015308 5.210096 0.000000 0.000000
-2.933259 5.210096 0.000000 0.000000
-2.851211 5.210096 -0.694539 -1.880061
-2.769162 5.210096 -0.681726 -1.822809
-2.687113 5.210096 -0.674498 -1.758210
-2.605064 5.210096 -0.689884 -1.679532
-2.523015 5.210096 -0.692445 -1.644190
-2.440967 5.210096 -0.669739 -1.669903
-2.358918 5.210096 -0.630585 -1.735009
-2.276869 5.210096 -0.590852 -1.787362
-2.194820 5.210096 -0.560997 -1.780589
-2.112771 5.210096 -0.536682 -1.718687
-2.030723 5.210096 -0.502952 -1.643698
-1.948674 5.210096 -0.446338 -1.593164
-1.866625 5.210096 -0.372679 -1.562491
-1.784576 5.210096 -0.323216 -1.517720
-1.702527 5.210096 -0.307112 -1.454513
-1.620479 5.210096 -0.287481 -1.394663
-1.538430 5.210096 -0.227531 -1.349716
-1.456381 5.210096 -0.152089 -1.319141
-1.374332 5.210096 -0.100454 -1.287372
-1.292283 5.210096 -0.081848 -1.249013
-1.210235 5.210096 -0.094855 -1.207331
-1.128186 5.210096 -0.124189 -1.161618
-1.046137 5.210096 -0.148711 -1.107345
-0.964088 5.210096 -0.162595 -1.041790
-0.882039 5.210096 -0.167016 -0.967725
-0.799991 5.210096 -0.157495 -0.892472
-0.717942 5.210096 -0.126258 -0.825342
-0.635893 5.210096 -0.095252 -0.767051
-0.553844 5.210096 -0.082673 -0.717359
-0.471795 5.210096 -0.082584 -0.672898
-0.389747 5.210096 -0.085890 -0.627592
-0.307698 5.210096 -0.086262 -0.581201
-0.225649 5.210096 0.000000 0.000000
-0.143600 5.210096 0.000000 0.000000
-0.061551 5.210096 0.000000 0.000000
0.020497 5.210096 0.000000 0.000000
0.102546 5.210096 0.000000 0.000000
0.184595 5.210096 0.000000 0.000000
0.266644 5.210096 0.000000 0.000000
0.348693 5.210096 0.000000 0.000000
0.430742 5.210096 0.000000 0.000000
0.512790 5.210096 0.000000 0.000000
0.594839 5.210096 0.000000 0.000000
0.676888 5.210096 0.000000 0.000000
-25.824876 5.128047 0.000000 0.000000
-25.742827 5.128047 0.000000 0.000000
-25.660778 5.128047 0.000000 0.000000
-25.578729 5.128047 0.000000 0.000000
-25.496680 5.128047 0.000000 0.000000
-25.414632 5.128047 0.000000 0.000000
-25.332583 5.128047 0.000000 0.000000
-25.250534 5.128047 0.000000 0.000000
-25.168485 5.128047 0.000000 0.000000
-25.086436 5.128047 0.000000 0.000000
-25.004388 5.128047 0.000000 0.000000
-24.922339 5.128047 0.000000 0.000000
-24.840290 5.128047 0.000000 0.000000
-24.758241 5.128047 0.000000 0.000000
-24.676192 5.128047 0.000000 0.000000
-24.594144 5.128047 0.000000 0.000000
-24.512095 5.128047 0.000000 0.000000
-24.430046 5.128047 0.000000 0.000000
-24.347997 5.128047 0.000000 0.000000
-24.265948 5.128047 0.000000 0.000000
-24.183900 5.128047 0.000000 0.000000
-24.101851 5.128047 0.000000 0.000000
-24.019802 5.128047 0.000000 0.000000
-23.937753 5.128047 0.000000 0.000000
-23.855704 5.128047 0.000000 0.000000
-23.773656 5.128047 0.000000 0.000000
-23.691607 5.128047 0.000000 0.000000
-23.609558 5.128047 0.000000 0.000000
-23.527509 5.128047 0.000000 0.000000
-23.445460 5.128047 0.000000 0.000000
-23.363412 5.128047 0.000000 0.000000
-23.281363 5.128047 0.000000 0.000000
-23.199314 5.128047 0.000000 0.000000
-23.117265 5.128047 0.000000 0.000000
-23.035216 5.128047 0.000000 0.000000
-22.953168 5.128047 0.000000 0.000000
-22.871119 5.128047 0.000000 0.000000
-22.789070 5.128047 0.000000 0.000000
-22.707021 5.128047 0.000000 0.000000
-22.624972 5.128047 0.000000 0.000000
-22.542923 5.128047 0.000000 0.000000
-22.460875 5.128047 0.000000 0.000000
-22.378826 5.128047 0.000000 0.000000
-22.296777 5.128047 0.000000 0.000000
-22.214728 5.128047 0.000000 0.000000
-22.132679 5.128047 0.000000 0.000000
-22.050631 5.128047 0.000000 0.000000
-21.968582 5.128047 0.000000 0.000000
-21.886533 5.128047 0.000000 0.000000
-21.804484 5.128047 0.000000 0.000000
-21.722435 5.128047 0.000000 0.000000
-21.640387 5.128047 0.000000 0.000000
-21.558338 5.128047 0.000000 0.000000
-21.476289 5.128047 0.000000 0.000000
-21.394240 5.128047 0.000000 0.000000
-21.312191 5.128047 0.000000 0.000000
-21.230143 5.128047 0.000000 0.000000
-21.148094 5.128047 0.000000 0.000000
-21.066045 5.128047 0.000000 0.000000
-20.983996 5.128047 0.000000 0.000000
-20.901947 5.128047 0.000000 0.000000
-20.819899 5.128047 0.000000 0.000000
-20.737850 5.128047 0.000000 0.000000
-20.655801 5.128047 0.000000 0.000000
-20.573752 5.128047 0.000000 0.000000
-20.491703 5.128047 0.000000 0.000000
-20.409655 5.128047 0.000000 0.000000
-20.327606 5.128047 0.000000 0.000000
-20.245557 5.128047 0.000000 0.000000
-20.163508 5.128047 0.000000 0.000000
-20.081459 5.128047 0.000000 0.000000
-19.999411 5.128047 0.000000 0.000000
-19.917362 5.128047 0.000000 0.000000
-19.835313 5.128047 0.000000 0.000000
-19.753264 5.128047 0.000000 0.000000
-19.671215 5.128047 0.000000 0.000000
-19.589167 5.128047 0.000000 0.000000
-19.507118 5.128047 0.000000 0.000000
-19.425069 5.128047 0.000000 0.000000
-19.343020 5.128047 0.000000 0.000000
-19.260971 5.128047 0.000000 0.000000
-19.178923 5.128047 0.000000 0.000000
-19.096874 5.128047 0.000000 0.000000
-19.014825 5.128047 0.000000 0.000000
-18.932776 5.128047 0.000000 0.000000
-18.850727 5.128047 0.000000 0.000000
-18.768679 5.128047 0.000000 0.000000
-18.686630 5.128047 0.000000 0.000000
-18.604581 5.128047 0.000000 0.000000
-18.522532 5.128047 0.000000 0.000000
-18.440483 5.128047 0.000000 0.000000
-18.358435 5.128047 0.000000 0.000000
-18.276386 5.128047 0.000000 0.000000
-18.194337 5.128047 0.000000 0.000000
-18.112288 5.128047 0.000000 0.000000
-18.030239 5.128047 0.000000 0.000000
-17.948190 5.128047 0.000000 0.000000
-17.866142 5.128047 0.000000 0.000000
-17.784093 5.128047 0.000000 0.000000
-17.702044 5.128047 0.000000 0.000000
-17.619995 5.128047 0.000000 0.000000
-17.537946 5.128047 0.000000 0.000000
-17.455898 5.128047 0.000000 0.000000
-17.373849 5.128047 0.000000 0.000000
-17.291800 5.128047 0.000000 0.000000
-17.209751 5.128047 0.000000 0.000000
-17.127702 5.128047 0.000000 0.000000
-17.045654 5.128047 0.000000 0.000000
-16.963605 5.128047 0.000000 0.000000
-16.881556 5.128047 0.000000 0.000000
-16.799507 5.128047 0.000000 0.000000
-16.717458 5.128047 0.000000 0.000000
-16.635410 5.128047 0.000000 0.000000
-16.553361 5.128047 0.000000 0.000000
-16.471312 5.128047 0.000000 0.000000
-16.389263 5.128047 0.000000 0.000000
-16.307214 5.128047 0.000000 0.000000
-16.225166 5.128047 0.000000 0.000000
-16.143117 5.128047 0.000000 0.000000
-16.061068 5.128047 0.000000 0.000000
-15.979019 5.128047 0.000000 0.000000
-15.896970 5.128047 0.000000 0.000000
-15.814922 5.128047 0.000000 0.000000
-15.732873 5.128047 0.000000 0.000000
-15.650824 5.128047 0.000000 0.000000
-15.568775 5.128047 0.000000 0.000000
-15.486726 5.128047 0.000000 0.000000
-15.404678 5.128047 0.000000 0.000000
-15.322629 5.128047 0.000000 0.000000
-15.240580 5.128047 0.000000 0.000000
-15.158531 5.128047 0.000000 0.000000
-15.076482 5.128047 0.000000 0.000000
-14.994434 5.128047 0.000000 0.000000
-14.912385 5.128047 0.000000 0.000000
-14.830336 5.128047 0.000000 0.000000
-14.748287 5.128047 0.000000 0.000000
-14.666238 5.128047 0.000000 0.000000
-14.584190 5.128047 0.000000 0.000000
-14.502141 5.128047 0.000000 0.000000
-14.420092 5.128047 0.000000 0.000000
-14.338043 5.128047 0.000000 0.000000
-14.255994 5.128047 0.000000 0.000000
-14.173946 5.128047 0.000000 0.000000
-14.091897 5.128047 0.000000 0.000000
-14.009848 5.128047 0.000000 0.000000
-13.927799 5.128047 0.000000 0.000000
-13.845750 5.128047 0.000000 0.000000
-13.763702 5.128047 0.000000 0.000000
-13.681653 5.128047 0.000000 0.000000
-13.599604 5.128047 0.000000 0.000000
-13.517555 5.128047 0.000000 0.000000
-13.435506 5.128047 0.000000 0.000000
-13.353457 5.128047 0.000000 0.000000
-13.271409 5.128047 0.000000 0.000000
-13.189360 5.128047 0.000000 0.000000
-13.107311 5.128047 0.000000 0.000000
-13.025262 5.128047 0.000000 0.000000
-12.943213 5.128047 0.000000 0.000000
-12.861165 5.128047 0.000000 0.000000
-12.779116 5.128047 0.000000 0.000000
-12.697067 5.128047 0.000000 0.000000
-12.615018 5.128047 0.000000 0.000000
-12.532969 5.128047 0.000000 0.000000
-12.450921 5.128047 0.000000 0.000000
-12.368872 5.128047 0.000000 0.000000
-12.286823 5.128047 0.000000 0.000000
-12.204774 5.128047 0.000000 0.000000
-12.122725 5.128047 0.000000 0.000000
-12.040677 5.128047 0.000000 0.000000
-11.958628 5.128047 0.000000 0.000000
-11.876579 5.128047 0.000000 0.000000
-11.794530 5.128047 0.000000 0.000000
-11.712481 5.128047 0.000000 0.000000
-11.630433 5.128047 0.000000 0.000000
-11.548384 5.128047 0.000000 0.000000
-11.466335 5.128047 0.000000 0.000000
-11.384286 5.128047 0.000000 0.000000
-11.302237 5.128047 0.000000 0.000000
-11.220189 5.128047 0.000000 0.000000
-11.138140 5.128047 0.000000 0.000000
-11.056091 5.128047 0.000000 0.000000
-10.974042 5.128047 0.000000 0.000000
-10.891993 5.128047 0.000000 0.000000
-10.809945 5.128047 0.000000 0.000000
-10.727896 5.128047 0.000000 0.000000
-10.645847 5.128047 0.000000 0.000000
-10.563798 5.128047 0.000000 0.000000
-10.481749 5.128047 0.000000 0.000000
-10.399701 5.128047 0.000000 0.000000
-10.317652 5.128047 0.000000 0.000000
-10.235603 5.128047 0.000000 0.000000
-10.153554 5.128047 0.000000 0.000000
-10.071505 5.128047 0.000000 0.000000
-9.989457 5.128047 0.000000 0.000000
-9.907408 5.128047 0.000000 0.000000
-9.825359 5.128047 0.000000 0.000000
-9.743310 5.128047 0.000000 0.000000
-9.661261 5.128047 0.000000 0.000000
-9.579213 5.128047 0.000000 0.000000
-9.497164 5.128047 0.000000 0.000000
-9.415115 5.128047 0.000000 0.000000
-9.333066 5.128047 0.000000 0.000000
-9.251017 5.128047 0.097241 -3.418498
-9.168969 5.128047 0.098485 -3.382724
-9.086920 5.128047 0.096865 -3.350758
-9.004871 5.128047 0.092111 -3.324956
-8.922822 5.128047 0.084813 -3.308214
-8.840773 5.128047 0.071527 -3.296955
-8.758724 5.128047 0.055710 -3.275562
-8.676676 5.128047 0.041002 -3.242832
-8.594627 5.128047 0.028649 -3.195231
-8.512578 5.128047 0.017620 -3.131592
-8.430529 5.128047 0.007044 -3.055625
-8.348480 5.128047 -0.000623 -2.980721
-8.266432 5.128047 0.000045 -2.922352
-8.184383 5.128047 0.010740 -2.881411
-8.102334 5.128047 0.022288 -2.846233
-8.020285 5.128047 0.030569 -2.813584
-7.938236 5.128047 0.044462 -2.787425
-7.856188 5.128047 0.070733 -2.767300
-7.774139 5.128047 0.099694 -2.744843
-7.692090 5.128047 0.110733 -2.710217
-7.610041 5.128047 0.092785 -2.661717
-7.527992 5.128047 0.063636 -2.611924
-7.445944 5.128047 0.045407 -2.569864
-7.363895 5.128047 0.044300 -2.532862
-7.281846 5.128047 0.042950 -2.490777
-7.199797 5.128047 0.028797 -2.434881
-7.117748 5.128047 -0.002615 -2.360565
-7.035700 5.128047 -0.048280 -2.269907
-6.953651 5.128047 -0.099244 -2.176692
-6.871602 5.128047 -0.140136 -2.104059
-6.789553 5.128047 -0.146430 -2.055563
-6.707504 5.128047 -0.137419 -2.005501
-6.625456 5.128047 -0.149512 -1.933719
-6.543407 5.128047 -0.188142 -1.844137
-6.461358 5.128047 -0.230674 -1.780909
-6.379309 5.128047 -0.255675 -1.770462
-6.297260 5.128047 -0.268652 -1.777775
-6.215212 5.128047 -0.281829 -1.774042
-6.133163 5.128047 -0.300473 -1.756647
-6.051114 5.128047 -0.321711 -1.730475
-5.969065 5.128047 -0.344429 -1.710247
-5.887016 5.128047 -0.371672 -1.701385
-5.804968 5.128047 -0.404267 -1.705751
-5.722919 5.128047 -0.441709 -1.727478
-5.640870 5.128047 -0.480127 -1.777125
-5.558821 5.128047 -0.513152 -1.875084
-5.476772 5.128047 -0.535712 -1.997312
-5.394724 5.128047 -0.550458 -2.087347
-5.312675 5.128047 -0.561754 -2.138926
-5.230626 5.128047 -0.569278 -2.164565
-5.148577 5.128047 -0.572718 -2.169985
-5.066528 5.128047 -0.569754 -2.149386
-4.984480 5.128047 -0.563382 -2.112424
-4.902431 5.128047 -0.574607 -2.121071
-4.820382 5.128047 -0.581501 -2.140326
-4.738333 5.128047 -0.580792 -2.147291
-4.656284 5.128047 -0.579932 -2.141009
-4.574236 5.128047 -0.584463 -2.129016
-4.492187 5.128047 -0.595349 -2.119822
-4.410138 5.128047 -0.608901 -2.116601
-4.328089 5.128047 -0.620864 -2.114517
-4.246040 5.128047 -0.629311 -2.108932
-4.163991 5.128047 -0.634967 -2.098028
-4.081943 5.128047 -0.639504 -2.082502
-3.999894 5.128047 -0.642763 -2.067917
-3.917845 5.128047 -0.647798 -2.061227
-3.835796 5.128047 -0.645026 -2.060922
-3.753747 5.128047 -0.626040 -2.060353
-3.671699 5.128047 -0.595183 -2.057179
-3.589650 5.128047 -0.587487 -2.059078
-3.507601 5.128047 -0.607994 -2.061989
-3.425552 5.128047 -0.652556 -2.075824
-3.343503 5.128047 -0.698564 -2.111487
-3.261455 5.128047 -0.725000 -2.148364
-3.179406 5.128047 -0.732852 -2.152581
-3.097357 5.128047 -0.728102 -2.108172
-3.015308 5.128047 -0.718465 -2.032444
-2.933259 5.128047 -0.708218 -1.957862
-2.851211 5.128047 -0.695132 -1.893219
-2.769162 5.128047 -0.678928 -1.832695
-2.687113 5.128047 -0.664207 -1.765471
-2.605064 5.128047 -0.661806 -1.690565
-2.523015 5.128047 -0.660717 -1.659644
-2.440967 5.128047 -0.643395 -1.683630
-2.358918 5.128047 -0.613150 -1.743030
-2.276869 5.128047 -0.581811 -1.786537
-2.194820 5.128047 -0.557785 -1.772741
-2.112771 5.128047 -0.536546 -1.710873
-2.030723 5.128047 -0.504541 -1.646099
-1.948674 5.128047 -0.448508 -1.609785
-1.866625 5.128047 -0.368589 -1.580744
-1.784576 5.128047 -0.305060 -1.521617
-1.702527 5.128047 -0.278698 -1.447757
-1.620479 5.128047 -0.257931 -1.388017
-1.538430 5.128047 -0.208881 -1.351302
-1.456381 5.128047 -0.146363 -1.324390
-1.374332 5.128047 -0.098449 -1.292671
-1.292283 5.128047 -0.075457 -1.253977
-1.210235 5.128047 -0.080566 -1.211798
-1.128186 5.128047 -0.108557 -1.165972
-1.046137 5.128047 -0.139084 -1.109929
-0.964088 5.128047 -0.161298 -1.040273
-0.882039 5.128047 -0.173378 -0.962716
-0.799991 5.128047 -0.168988 -0.888139
-0.717942 5.128047 -0.142867 -0.825895
-0.635893 5.128047 -0.108430 -0.775220
-0.553844 5.128047 -0.092300 -0.728921
-0.471795 5.128047 -0.090742 -0.682624
-0.389747 5.128047 -0.095054 -0.632384
-0.307698 5.128047 -0.099413 -0.577388
-0.225649 5.128047 -0.096317 -0.515097
-0.143600 5.128047 0.000000 0.000000
-0.061551 5.128047 0.000000 0.000000
0.020497 5.128047 0.000000 0.000000
0.102546 5.128047 0.000000 0.000000
0.184595 5.128047 0.000000 0.000000
0.266644 5.128047 0.000000 0.000000
0.348693 5.128047 0.000000 0.000000
0.430742 5.128047 0.000000 0.000000
0.512790 5.128047 0.000000 0.000000
0.594839 5.128047 0.000000 0.000000
0.676888 5.128047 0.000000 0.000000
-25.824876 5.045998 0.000000 0.000000
-25.742827 5.045998 0.000000 0.000000
-25.660778 5.045998 0.000000 0.000000
-25.578729 5.045998 0.000000 0.000000
-25.496680 5.045998 0.000000 0.000000
-25.414632 5.045998 0.000000 0.000000
-25.332583 5.045998 0.000000 0.000000
-25.250534 5.045998 0.000000 0.000000
-25.168485 5.045998 0.000000 0.000000
-25.086436 5.045998 0.000000 0.000000
-25.004388 5.045998 0.000000 0.000000
-24.922339 5.045998 0.000000 0.000000
-24.840290 5.045998 0.000000 0.000000
-24.758241 5.045998 0.000000 0.000000
-24.676192 5.045998 0.000000 0.000000
-24.594144 5.045998 0.000000 0.000000
-24.512095 5.045998 0.000000 0.000000
-24.430046 5.045998 0.000000 0.000000
-24.347997 5.045998 0.000000 0.000000
-24.265948 5.045998 0.000000 0.000000
-24.183900 5.045998 0.000000 0.000000
-24.101851 5.045998 0.000000 0.000000
-24.019802 5.045998 0.000000 0.000000
-23.937753 5.045998 0.000000 0.000000
-23.855704 5.045998 0.000000 0.000000
-23.773656 5.045998 0.000000 0.000000
-23.691607 5.045998 0.000000 0.000000
-23.609558 5.045998 0.000000 0.000000
-23.527509 5.045998 0.000000 0.000000
-23.445460 5.045998 0.000000 0.000000
-23.363412 5.045998 0.000000 0.000000
-23.281363 5.045998 0.000000 0.000000
-23.199314 5.045998 0.000000 0.000000
-23.117265 5.045998 0.000000 0.000000
-23.035216 5.045998 0.000000 0.000000
-22.953168 5.045998 0.000000 0.000000
-22.871119 5.045998 0.000000 0.000000
-22.789070 5.045998 0.000000 0.000000
-22.707021 5.045998 0.000000 0.000000
-22.624972 5.045998 0.000000 0.000000
-22.542923 5.045998 0.000000 0.000000
-22.460875 5.045998 0.000000 0.000000
-22.378826 5.045998 0.000000 0.000000
-22.296777 5.045998 0.000000 0.000000
-22.214728 5.045998 0.000000 0.000000
-22.132679 5.045998 0.000000 0.000000
-22.050631 5.045998 0.000000 0.000000
-21.968582 5.045998 0.000000 0.000000
-21.886533 5.045998 0.000000 0.000000
-21.804484 5.045998 0.000000 0.000000
-21.722435 5.045998 0.000000 0.000000
-21.640387 5.045998 0.000000 0.000000
-21.558338 5.045998 0.000000 0.000000
-21.476289 5.045998 0.000000 0.000000
-21.394240 5.045998 0.000000 0.000000
-21.312191 5.045998 0.000000 0.000000
-21.230143 5.045998 0.000000 0.000000
-21.148094 5.045998 0.000000 0.000000
-21.066045 5.045998 0.000000 0.000000
-20.983996 5.045998 0.000000 0.000000
-20.901947 5.045998 0.000000 0.000000
-20.819899 5.045998 0.000000 0.000000
-20.737850 5.045998 0.000000 0.000000
-20.655801 5.045998 0.000000 0.000000
-20.573752 5.045998 0.000000 0.000000
-20.491703 5.045998 0.000000 0.000000
-20.409655 5.045998 0.000000 0.000000
-20.327606 5.045998 0.000000 0.000000
-20.245557 5.045998 0.000000 0.000000
-20.163508 5.045998 0.000000 0.000000
-20.081459 5.045998 0.000000 0.000000
-19.999411 5.045998 0.000000 0.000000
-19.917362 5.045998 0.000000 0.000000
-19.835313 5.045998 0.000000 0.000000
-19.753264 5.045998 0.000000 0.000000
-19.671215 5.045998 0.000000 0.000000
-19.589167 5.045998 0.000000 0.000000
-19.507118 5.045998 0.000000 0.000000
-19.425069 5.045998 0.000000 0.000000
-19.343020 5.045998 0.000000 0.000000
-19.260971 5.045998 0.000000 0.000000
-19.178923 5.045998 0.000000 0.000000
-19.096874 5.045998 0.000000 0.000000
-19.014825 5.045998 0.000000 0.000000
-18.932776 5.045998 0.000000 0.000000
-18.850727 5.045998 0.000000 0.000000
-18.768679 5.045998 0.000000 0.000000
-18.686630 5.045998 0.000000 0.000000
-18.604581 5.045998 0.000000 0.000000
-18.522532 5.045998 0.000000 0.000000
-18.440483 5.045998 0.000000 0.000000
-18.358435 5.045998 0.000000 0.000000
-18.276386 5.045998 0.000000 0.000000
-18.194337 5.045998 0.000000 0.000000
-18.112288 5.045998 0.000000 0.000000
-18.030239 5.045998 0.000000 0.000000
-17.948190 5.045998 -0.172812 -3.891126
-17.866142 5.045998 -0.177837 -3.855810
-17.784093 5.045998 -0.179365 -3.827592
-17.702044 5.045998 -0.175932 -3.806119
-17.619995 5.045998 -0.170837 -3.790874
-17.537946 5.045998 -0.169138 -3.785812
-17.455898 5.045998 -0.172335 -3.797127
-17.373849 5.045998 -0.173108 -3.816826
-17.291800 5.045998 -0.164696 -3.831165
-17.209751 5.045998 -0.150303 -3.835928
-17.127702 5.045998 -0.140216 -3.823843
-17.045654 5.045998 -0.138307 -3.786739
-16.963605 5.045998 -0.138713 -3.729147
-16.881556 5.045998 -0.133562 -3.696006
-16.799507 5.045998 -0.127825 -3.715805
-16.717458 5.045998 -0.123496 -3.715881
-16.635410 5.045998 -0.121971 -3.708918
-16.553361 5.045998 -0.122693 -3.698237
-16.471312 5.045998 -0.124897 -3.685599
-16.389263 5.045998 -0.128250 -3.671798
-16.307214 5.045998 -0.130824 -3.657315
-16.225166 5.045998 -0.130364 -3.644315